
     Program PWSCF v.7.2 starts on  9May2024 at 19:21: 1 

     This program is part of the open-source Quantum ESPRESSO suite
     for quantum simulation of materials; please cite
         "P. Giannozzi et al., J. Phys.:Condens. Matter 21 395502 (2009);
         "P. Giannozzi et al., J. Phys.:Condens. Matter 29 465901 (2017);
         "P. Giannozzi et al., J. Chem. Phys. 152 154105 (2020);
          URL http://www.quantum-espresso.org", 
     in publications or presentations arising from this work. More details at
     http://www.quantum-espresso.org/quote

     Parallel version (MPI), running on    36 processors

     MPI processes distributed on     1 nodes
     235593 MiB available memory on the printing compute node when the environment starts
 
     Reading input from lcso_nscf.in

     Current dimensions of program PWSCF are:
     Max number of different atomic species (ntypx) = 10
     Max number of k-points (npk) =  40000
     Max angular momentum in pseudopotentials (lmaxx) =  4

     Atomic positions and unit cell read from directory:
     ./out/lcso.save/
     Atomic positions from file used, from input discarded
 
     Message from routine setup:
     using ibrav=0 with symmetry is DISCOURAGED, use correct ibrav instead
 
     R & G space division:  proc/nbgrp/npool/nimage =      36
     Subspace diagonalization in iterative solution of the eigenvalue problem:
     one sub-group per band group will be used
     custom distributed-memory algorithm (size of sub-group:  5*  5 procs)

 
     Parallelization info
     --------------------
     sticks:   dense  smooth     PW     G-vecs:    dense   smooth      PW
     Min         235     235     64                13233    13233    1878
     Max         236     236     65                13237    13237    1881
     Sum        8475    8475   2311               476443   476443   67657
 
     Using Slab Decomposition
 


     bravais-lattice index     =            0
     lattice parameter (alat)  =      15.2665  a.u.
     unit-cell volume          =    3526.2206 (a.u.)^3
     number of atoms/cell      =           42
     number of atomic types    =            4
     number of electrons       =       386.00
     number of Kohn-Sham states=          500
     kinetic-energy cutoff     =     100.0000  Ry
     charge density cutoff     =     400.0000  Ry
     Exchange-correlation= PBESOL
                           (   1   4  10   8   0   0   0)

     celldm(1)=  15.266530  celldm(2)=   0.000000  celldm(3)=   0.000000
     celldm(4)=   0.000000  celldm(5)=   0.000000  celldm(6)=   0.000000

     crystal axes: (cart. coord. in units of alat)
               a(1) = (   1.000000   0.000000   0.000000 )  
               a(2) = (   0.000000   1.143204   0.000000 )  
               a(3) = (  -0.418829   0.000000   0.866892 )  

     reciprocal axes: (cart. coord. in units 2 pi/alat)
               b(1) = (  1.000000  0.000000  0.483139 )  
               b(2) = (  0.000000  0.874735  0.000000 )  
               b(3) = (  0.000000  0.000000  1.153547 )  


     PseudoPot. # 1 for Co read from file:
     /projects/p31387/PP/PBEsol_NC_SR/Co.upf
     MD5 check sum: da2f8eda8ae963674925720b0359a264
     Pseudo is Norm-conserving + core correction, Zval = 17.0
     Generated using ONCVPSP code by D. R. Hamann
     Using radial grid of 1388 points,  6 beta functions with: 
                l(1) =   0
                l(2) =   0
                l(3) =   1
                l(4) =   1
                l(5) =   2
                l(6) =   2

     PseudoPot. # 2 for Li read from file:
     /projects/p31387/PP/PBEsol_NC_SR/Li.upf
     MD5 check sum: dc9f6e608df41cc7e5665a263ba47fe0
     Pseudo is Norm-conserving, Zval =  3.0
     Generated using ONCVPSP code by D. R. Hamann
     Using radial grid of 1944 points,  4 beta functions with: 
                l(1) =   0
                l(2) =   0
                l(3) =   1
                l(4) =   1

     PseudoPot. # 3 for O  read from file:
     /projects/p31387/PP/PBEsol_NC_SR/O.upf
     MD5 check sum: f226cbcd508cec715ff87a8f75a1dfba
     Pseudo is Norm-conserving + core correction, Zval =  6.0
     Generated using ONCVPSP code by D. R. Hamann
     Using radial grid of  936 points,  5 beta functions with: 
                l(1) =   0
                l(2) =   0
                l(3) =   1
                l(4) =   1
                l(5) =   2

     PseudoPot. # 4 for Se read from file:
     /projects/p31387/PP/PBEsol_NC_SR/Se.upf
     MD5 check sum: c42e2feaec75ccac7da27b7ff1240b9c
     Pseudo is Norm-conserving + core correction, Zval = 16.0
     Generated using ONCVPSP code by D. R. Hamann
     Using radial grid of 1198 points,  6 beta functions with: 
                l(1) =   0
                l(2) =   0
                l(3) =   1
                l(4) =   1
                l(5) =   2
                l(6) =   2

     atomic species   valence    mass     pseudopotential
        Co            17.00    58.93319     Co( 1.00)
        Li             3.00     6.94100     Li( 1.00)
        O              6.00    15.99940     O ( 1.00)
        Se            16.00    78.96000     Se( 1.00)

      2 Sym. Ops., with inversion, found


                                    s                        frac. trans.

      isym =  1     identity                                     

 cryst.   s( 1) = (     1          0          0      )
                  (     0          1          0      )
                  (     0          0          1      )

 cart.    s( 1) = (  1.0000000  0.0000000  0.0000000 )
                  (  0.0000000  1.0000000  0.0000000 )
                  (  0.0000000  0.0000000  1.0000000 )


      isym =  2     inversion                                    

 cryst.   s( 2) = (    -1          0          0      )
                  (     0         -1          0      )
                  (     0          0         -1      )

 cart.    s( 2) = ( -1.0000000  0.0000000  0.0000000 )
                  (  0.0000000 -1.0000000  0.0000000 )
                  (  0.0000000  0.0000000 -1.0000000 )


   Cartesian axes

     site n.     atom                  positions (alat units)
         1           Se  tau(   1) = (  -0.2147682   0.9460011   0.6386737  )
         2           Se  tau(   2) = (   0.5865245   0.3743992   0.6616637  )
         3           Se  tau(   3) = (   0.7959390   0.1972026   0.2282179  )
         4           Se  tau(   4) = (  -0.0053536   0.7688045   0.2052279  )
         5           Se  tau(   5) = (   0.0659170   0.2098922   0.5387125  )
         6           Se  tau(   6) = (   0.3058393   0.7814941   0.7616250  )
         7           Se  tau(   7) = (   0.5152538   0.9333115   0.3281792  )
         8           Se  tau(   8) = (   0.2753316   0.3617097   0.1052666  )
         9           Co  tau(   9) = (   0.5000000   0.0000000   0.0000000  )
        10           Co  tau(  10) = (   0.2905854   0.5716019   0.4334458  )
        11           Co  tau(  11) = (  -0.0727120   0.5822451   0.5860881  )
        12           Co  tau(  12) = (   0.4444683   0.0106432   0.7142493  )
        13           Co  tau(  13) = (   0.6538829   0.5609586   0.2808035  )
        14           Co  tau(  14) = (   0.1367026   1.1325605   0.1526423  )
        15           O   tau(  15) = (  -0.0354590   1.0493010   0.6607188  )
        16           O   tau(  16) = (   0.4072153   0.4776991   0.6396186  )
        17           O   tau(  17) = (   0.6166299   0.0939028   0.2061728  )
        18           O   tau(  18) = (   0.1739556   0.6655046   0.2272730  )
        19           O   tau(  19) = (  -0.1745800   0.7597732   0.7266025  )
        20           O   tau(  20) = (   0.5463363   0.1881713   0.5737349  )
        21           O   tau(  21) = (   0.7557509   0.3834305   0.1402891  )
        22           O   tau(  22) = (   0.0348345   0.9550324   0.2931567  )
        23           O   tau(  23) = (  -0.3380248   1.0304038   0.7873196  )
        24           O   tau(  24) = (   0.7097811   0.4588020   0.5130178  )
        25           O   tau(  25) = (   0.9191957   0.1127999   0.0795720  )
        26           O   tau(  26) = (  -0.1286102   0.6844018   0.3538738  )
        27           O   tau(  27) = (   0.0965834   0.4175780   0.5003872  )
        28           O   tau(  28) = (   0.2751728   0.9891799   0.7999502  )
        29           O   tau(  29) = (   0.4845874   0.7256257   0.3665044  )
        30           O   tau(  30) = (   0.3059980   0.1540238   0.0669414  )
        31           O   tau(  31) = (   0.1972582   0.1710004   0.7019135  )
        32           O   tau(  32) = (   0.1744981   0.7426023   0.5984239  )
        33           O   tau(  33) = (   0.3839126   0.9722033   0.1649781  )
        34           O   tau(  34) = (   0.4066728   0.4006015   0.2684677  )
        35           O   tau(  35) = (   0.1733956   0.1218541   0.3842670  )
        36           O   tau(  36) = (   0.6171898   0.6934560   0.0491788  )
        37           O   tau(  37) = (   0.4077752   1.0213496   0.4826246  )
        38           O   tau(  38) = (  -0.0360190   0.4497478   0.8177129  )
        39           Li  tau(  39) = (   0.3639167   0.7333652   0.0701315  )
        40           Li  tau(  40) = (   0.4266687   0.1617633   0.3633143  )
        41           Li  tau(  41) = (   0.2172541   0.4098385   0.7967601  )
        42           Li  tau(  42) = (   0.1545021   0.9814404   0.5035773  )

   Crystallographic axes

     site n.     atom                  positions (cryst. coord.)
         1           Se  tau(   1) = (  0.0938000  0.8275000  0.7367400  )
         2           Se  tau(   2) = (  0.9062000  0.3275000  0.7632600  )
         3           Se  tau(   3) = (  0.9062000  0.1725000  0.2632600  )
         4           Se  tau(   4) = (  0.0938000  0.6725000  0.2367400  )
         5           Se  tau(   5) = (  0.3261900  0.1836000  0.6214300  )
         6           Se  tau(   6) = (  0.6738100  0.6836000  0.8785700  )
         7           Se  tau(   7) = (  0.6738100  0.8164000  0.3785700  )
         8           Se  tau(   8) = (  0.3261900  0.3164000  0.1214300  )
         9           Co  tau(   9) = (  0.5000000  0.0000000  0.0000000  )
        10           Co  tau(  10) = (  0.5000000  0.5000000  0.5000000  )
        11           Co  tau(  11) = (  0.2104500  0.5093100  0.6760800  )
        12           Co  tau(  12) = (  0.7895500  0.0093100  0.8239200  )
        13           Co  tau(  13) = (  0.7895500  0.4906900  0.3239200  )
        14           Co  tau(  14) = (  0.2104500  0.9906900  0.1760800  )
        15           O   tau(  15) = (  0.2837600  0.9178600  0.7621700  )
        16           O   tau(  16) = (  0.7162400  0.4178600  0.7378300  )
        17           O   tau(  17) = (  0.7162400  0.0821400  0.2378300  )
        18           O   tau(  18) = (  0.2837600  0.5821400  0.2621700  )
        19           O   tau(  19) = (  0.1764700  0.6646000  0.8381700  )
        20           O   tau(  20) = (  0.8235300  0.1646000  0.6618300  )
        21           O   tau(  21) = (  0.8235300  0.3354000  0.1618300  )
        22           O   tau(  22) = (  0.1764700  0.8354000  0.3381700  )
        23           O   tau(  23) = (  0.0423600  0.9013300  0.9082100  )
        24           O   tau(  24) = (  0.9576400  0.4013300  0.5917900  )
        25           O   tau(  25) = (  0.9576400  0.0986700  0.0917900  )
        26           O   tau(  26) = (  0.0423600  0.5986700  0.4082100  )
        27           O   tau(  27) = (  0.3383400  0.3652700  0.5772200  )
        28           O   tau(  28) = (  0.6616600  0.8652700  0.9227800  )
        29           O   tau(  29) = (  0.6616600  0.6347300  0.4227800  )
        30           O   tau(  30) = (  0.3383400  0.1347300  0.0772200  )
        31           O   tau(  31) = (  0.5363800  0.1495800  0.8096900  )
        32           O   tau(  32) = (  0.4636200  0.6495800  0.6903100  )
        33           O   tau(  33) = (  0.4636200  0.8504200  0.1903100  )
        34           O   tau(  34) = (  0.5363800  0.3504200  0.3096900  )
        35           O   tau(  35) = (  0.3590500  0.1065900  0.4432700  )
        36           O   tau(  36) = (  0.6409500  0.6065900  0.0567300  )
        37           O   tau(  37) = (  0.6409500  0.8934100  0.5567300  )
        38           O   tau(  38) = (  0.3590500  0.3934100  0.9432700  )
        39           Li  tau(  39) = (  0.3978000  0.6415000  0.0809000  )
        40           Li  tau(  40) = (  0.6022000  0.1415000  0.4191000  )
        41           Li  tau(  41) = (  0.6022000  0.3585000  0.9191000  )
        42           Li  tau(  42) = (  0.3978000  0.8585000  0.5809000  )

     number of k points=   112  Marzari-Vanderbilt smearing, width (Ry)=  0.0010
                       cart. coord. in units 2pi/alat
        k(    1) = (   0.0000000   0.0000000   0.0000000), wk =   0.0092593
        k(    2) = (   0.0000000   0.0000000   0.1922578), wk =   0.0185185
        k(    3) = (   0.0000000   0.0000000   0.3845156), wk =   0.0185185
        k(    4) = (   0.0000000   0.0000000  -0.5767734), wk =   0.0092593
        k(    5) = (   0.0000000   0.1457891   0.0000000), wk =   0.0185185
        k(    6) = (   0.0000000   0.1457891   0.1922578), wk =   0.0185185
        k(    7) = (   0.0000000   0.1457891   0.3845156), wk =   0.0185185
        k(    8) = (   0.0000000   0.1457891  -0.5767734), wk =   0.0185185
        k(    9) = (   0.0000000   0.2915782   0.0000000), wk =   0.0185185
        k(   10) = (   0.0000000   0.2915782   0.1922578), wk =   0.0185185
        k(   11) = (   0.0000000   0.2915782   0.3845156), wk =   0.0185185
        k(   12) = (   0.0000000   0.2915782  -0.5767734), wk =   0.0185185
        k(   13) = (   0.0000000  -0.4373674   0.0000000), wk =   0.0092593
        k(   14) = (   0.0000000  -0.4373674   0.1922578), wk =   0.0185185
        k(   15) = (   0.0000000  -0.4373674   0.3845156), wk =   0.0185185
        k(   16) = (   0.0000000  -0.4373674  -0.5767734), wk =   0.0092593
        k(   17) = (   0.1666667   0.0000000   0.0805232), wk =   0.0185185
        k(   18) = (   0.1666667   0.0000000   0.2727810), wk =   0.0185185
        k(   19) = (   0.1666667   0.0000000   0.4650387), wk =   0.0185185
        k(   20) = (   0.1666667   0.0000000  -0.4962502), wk =   0.0185185
        k(   21) = (   0.1666667   0.0000000  -0.3039924), wk =   0.0185185
        k(   22) = (   0.1666667   0.0000000  -0.1117346), wk =   0.0185185
        k(   23) = (   0.1666667   0.1457891   0.0805232), wk =   0.0185185
        k(   24) = (   0.1666667   0.1457891   0.2727810), wk =   0.0185185
        k(   25) = (   0.1666667   0.1457891   0.4650387), wk =   0.0185185
        k(   26) = (   0.1666667   0.1457891  -0.4962502), wk =   0.0185185
        k(   27) = (   0.1666667   0.1457891  -0.3039924), wk =   0.0185185
        k(   28) = (   0.1666667   0.1457891  -0.1117346), wk =   0.0185185
        k(   29) = (   0.1666667   0.2915782   0.0805232), wk =   0.0185185
        k(   30) = (   0.1666667   0.2915782   0.2727810), wk =   0.0185185
        k(   31) = (   0.1666667   0.2915782   0.4650387), wk =   0.0185185
        k(   32) = (   0.1666667   0.2915782  -0.4962502), wk =   0.0185185
        k(   33) = (   0.1666667   0.2915782  -0.3039924), wk =   0.0185185
        k(   34) = (   0.1666667   0.2915782  -0.1117346), wk =   0.0185185
        k(   35) = (   0.1666667  -0.4373674   0.0805232), wk =   0.0185185
        k(   36) = (   0.1666667  -0.4373674   0.2727810), wk =   0.0185185
        k(   37) = (   0.1666667  -0.4373674   0.4650387), wk =   0.0185185
        k(   38) = (   0.1666667  -0.4373674  -0.4962502), wk =   0.0185185
        k(   39) = (   0.1666667  -0.4373674  -0.3039924), wk =   0.0185185
        k(   40) = (   0.1666667  -0.4373674  -0.1117346), wk =   0.0185185
        k(   41) = (   0.3333333   0.0000000   0.1610463), wk =   0.0185185
        k(   42) = (   0.3333333   0.0000000   0.3533041), wk =   0.0185185
        k(   43) = (   0.3333333   0.0000000   0.5455619), wk =   0.0185185
        k(   44) = (   0.3333333   0.0000000  -0.4157270), wk =   0.0185185
        k(   45) = (   0.3333333   0.0000000  -0.2234692), wk =   0.0185185
        k(   46) = (   0.3333333   0.0000000  -0.0312115), wk =   0.0185185
        k(   47) = (   0.3333333   0.1457891   0.1610463), wk =   0.0185185
        k(   48) = (   0.3333333   0.1457891   0.3533041), wk =   0.0185185
        k(   49) = (   0.3333333   0.1457891   0.5455619), wk =   0.0185185
        k(   50) = (   0.3333333   0.1457891  -0.4157270), wk =   0.0185185
        k(   51) = (   0.3333333   0.1457891  -0.2234692), wk =   0.0185185
        k(   52) = (   0.3333333   0.1457891  -0.0312115), wk =   0.0185185
        k(   53) = (   0.3333333   0.2915782   0.1610463), wk =   0.0185185
        k(   54) = (   0.3333333   0.2915782   0.3533041), wk =   0.0185185
        k(   55) = (   0.3333333   0.2915782   0.5455619), wk =   0.0185185
        k(   56) = (   0.3333333   0.2915782  -0.4157270), wk =   0.0185185
        k(   57) = (   0.3333333   0.2915782  -0.2234692), wk =   0.0185185
        k(   58) = (   0.3333333   0.2915782  -0.0312115), wk =   0.0185185
        k(   59) = (   0.3333333  -0.4373674   0.1610463), wk =   0.0185185
        k(   60) = (   0.3333333  -0.4373674   0.3533041), wk =   0.0185185
        k(   61) = (   0.3333333  -0.4373674   0.5455619), wk =   0.0185185
        k(   62) = (   0.3333333  -0.4373674  -0.4157270), wk =   0.0185185
        k(   63) = (   0.3333333  -0.4373674  -0.2234692), wk =   0.0185185
        k(   64) = (   0.3333333  -0.4373674  -0.0312115), wk =   0.0185185
        k(   65) = (  -0.5000000   0.0000000  -0.2415695), wk =   0.0092593
        k(   66) = (  -0.5000000   0.0000000  -0.0493117), wk =   0.0185185
        k(   67) = (  -0.5000000   0.0000000   0.1429461), wk =   0.0185185
        k(   68) = (  -0.5000000   0.0000000  -0.8183429), wk =   0.0092593
        k(   69) = (  -0.5000000   0.1457891  -0.2415695), wk =   0.0185185
        k(   70) = (  -0.5000000   0.1457891  -0.0493117), wk =   0.0185185
        k(   71) = (  -0.5000000   0.1457891   0.1429461), wk =   0.0185185
        k(   72) = (  -0.5000000   0.1457891  -0.8183429), wk =   0.0185185
        k(   73) = (  -0.5000000   0.2915782  -0.2415695), wk =   0.0185185
        k(   74) = (  -0.5000000   0.2915782  -0.0493117), wk =   0.0185185
        k(   75) = (  -0.5000000   0.2915782   0.1429461), wk =   0.0185185
        k(   76) = (  -0.5000000   0.2915782  -0.8183429), wk =   0.0185185
        k(   77) = (  -0.5000000  -0.4373674  -0.2415695), wk =   0.0092593
        k(   78) = (  -0.5000000  -0.4373674  -0.0493117), wk =   0.0185185
        k(   79) = (  -0.5000000  -0.4373674   0.1429461), wk =   0.0185185
        k(   80) = (  -0.5000000  -0.4373674  -0.8183429), wk =   0.0092593
        k(   81) = (   0.0000000   0.1457891  -0.1922578), wk =   0.0185185
        k(   82) = (   0.0000000   0.1457891  -0.3845156), wk =   0.0185185
        k(   83) = (   0.0000000   0.2915782  -0.1922578), wk =   0.0185185
        k(   84) = (   0.0000000   0.2915782  -0.3845156), wk =   0.0185185
        k(   85) = (  -0.1666667   0.1457891  -0.0805232), wk =   0.0185185
        k(   86) = (  -0.1666667   0.1457891  -0.2727810), wk =   0.0185185
        k(   87) = (  -0.1666667   0.1457891  -0.4650387), wk =   0.0185185
        k(   88) = (  -0.1666667   0.1457891   0.4962502), wk =   0.0185185
        k(   89) = (  -0.1666667   0.1457891   0.3039924), wk =   0.0185185
        k(   90) = (  -0.1666667   0.1457891   0.1117346), wk =   0.0185185
        k(   91) = (  -0.1666667   0.2915782  -0.0805232), wk =   0.0185185
        k(   92) = (  -0.1666667   0.2915782  -0.2727810), wk =   0.0185185
        k(   93) = (  -0.1666667   0.2915782  -0.4650387), wk =   0.0185185
        k(   94) = (  -0.1666667   0.2915782   0.4962502), wk =   0.0185185
        k(   95) = (  -0.1666667   0.2915782   0.3039924), wk =   0.0185185
        k(   96) = (  -0.1666667   0.2915782   0.1117346), wk =   0.0185185
        k(   97) = (  -0.3333333   0.1457891  -0.1610463), wk =   0.0185185
        k(   98) = (  -0.3333333   0.1457891  -0.3533041), wk =   0.0185185
        k(   99) = (  -0.3333333   0.1457891  -0.5455619), wk =   0.0185185
        k(  100) = (  -0.3333333   0.1457891   0.4157270), wk =   0.0185185
        k(  101) = (  -0.3333333   0.1457891   0.2234692), wk =   0.0185185
        k(  102) = (  -0.3333333   0.1457891   0.0312115), wk =   0.0185185
        k(  103) = (  -0.3333333   0.2915782  -0.1610463), wk =   0.0185185
        k(  104) = (  -0.3333333   0.2915782  -0.3533041), wk =   0.0185185
        k(  105) = (  -0.3333333   0.2915782  -0.5455619), wk =   0.0185185
        k(  106) = (  -0.3333333   0.2915782   0.4157270), wk =   0.0185185
        k(  107) = (  -0.3333333   0.2915782   0.2234692), wk =   0.0185185
        k(  108) = (  -0.3333333   0.2915782   0.0312115), wk =   0.0185185
        k(  109) = (   0.5000000   0.1457891   0.0493117), wk =   0.0185185
        k(  110) = (   0.5000000   0.1457891  -0.1429461), wk =   0.0185185
        k(  111) = (   0.5000000   0.2915782   0.0493117), wk =   0.0185185
        k(  112) = (   0.5000000   0.2915782  -0.1429461), wk =   0.0185185

                       cryst. coord.
        k(    1) = (   0.0000000   0.0000000   0.0000000), wk =   0.0092593
        k(    2) = (   0.0000000   0.0000000   0.1666667), wk =   0.0185185
        k(    3) = (   0.0000000   0.0000000   0.3333333), wk =   0.0185185
        k(    4) = (   0.0000000   0.0000000  -0.5000000), wk =   0.0092593
        k(    5) = (   0.0000000   0.1666667   0.0000000), wk =   0.0185185
        k(    6) = (   0.0000000   0.1666667   0.1666667), wk =   0.0185185
        k(    7) = (   0.0000000   0.1666667   0.3333333), wk =   0.0185185
        k(    8) = (   0.0000000   0.1666667  -0.5000000), wk =   0.0185185
        k(    9) = (   0.0000000   0.3333333   0.0000000), wk =   0.0185185
        k(   10) = (   0.0000000   0.3333333   0.1666667), wk =   0.0185185
        k(   11) = (   0.0000000   0.3333333   0.3333333), wk =   0.0185185
        k(   12) = (   0.0000000   0.3333333  -0.5000000), wk =   0.0185185
        k(   13) = (   0.0000000  -0.5000000   0.0000000), wk =   0.0092593
        k(   14) = (   0.0000000  -0.5000000   0.1666667), wk =   0.0185185
        k(   15) = (   0.0000000  -0.5000000   0.3333333), wk =   0.0185185
        k(   16) = (   0.0000000  -0.5000000  -0.5000000), wk =   0.0092593
        k(   17) = (   0.1666667   0.0000000  -0.0000000), wk =   0.0185185
        k(   18) = (   0.1666667   0.0000000   0.1666667), wk =   0.0185185
        k(   19) = (   0.1666667   0.0000000   0.3333333), wk =   0.0185185
        k(   20) = (   0.1666667   0.0000000  -0.5000000), wk =   0.0185185
        k(   21) = (   0.1666667   0.0000000  -0.3333333), wk =   0.0185185
        k(   22) = (   0.1666667   0.0000000  -0.1666667), wk =   0.0185185
        k(   23) = (   0.1666667   0.1666667  -0.0000000), wk =   0.0185185
        k(   24) = (   0.1666667   0.1666667   0.1666667), wk =   0.0185185
        k(   25) = (   0.1666667   0.1666667   0.3333333), wk =   0.0185185
        k(   26) = (   0.1666667   0.1666667  -0.5000000), wk =   0.0185185
        k(   27) = (   0.1666667   0.1666667  -0.3333333), wk =   0.0185185
        k(   28) = (   0.1666667   0.1666667  -0.1666667), wk =   0.0185185
        k(   29) = (   0.1666667   0.3333333  -0.0000000), wk =   0.0185185
        k(   30) = (   0.1666667   0.3333333   0.1666667), wk =   0.0185185
        k(   31) = (   0.1666667   0.3333333   0.3333333), wk =   0.0185185
        k(   32) = (   0.1666667   0.3333333  -0.5000000), wk =   0.0185185
        k(   33) = (   0.1666667   0.3333333  -0.3333333), wk =   0.0185185
        k(   34) = (   0.1666667   0.3333333  -0.1666667), wk =   0.0185185
        k(   35) = (   0.1666667  -0.5000000  -0.0000000), wk =   0.0185185
        k(   36) = (   0.1666667  -0.5000000   0.1666667), wk =   0.0185185
        k(   37) = (   0.1666667  -0.5000000   0.3333333), wk =   0.0185185
        k(   38) = (   0.1666667  -0.5000000  -0.5000000), wk =   0.0185185
        k(   39) = (   0.1666667  -0.5000000  -0.3333333), wk =   0.0185185
        k(   40) = (   0.1666667  -0.5000000  -0.1666667), wk =   0.0185185
        k(   41) = (   0.3333333   0.0000000  -0.0000000), wk =   0.0185185
        k(   42) = (   0.3333333   0.0000000   0.1666667), wk =   0.0185185
        k(   43) = (   0.3333333   0.0000000   0.3333333), wk =   0.0185185
        k(   44) = (   0.3333333   0.0000000  -0.5000000), wk =   0.0185185
        k(   45) = (   0.3333333   0.0000000  -0.3333333), wk =   0.0185185
        k(   46) = (   0.3333333   0.0000000  -0.1666667), wk =   0.0185185
        k(   47) = (   0.3333333   0.1666667  -0.0000000), wk =   0.0185185
        k(   48) = (   0.3333333   0.1666667   0.1666667), wk =   0.0185185
        k(   49) = (   0.3333333   0.1666667   0.3333333), wk =   0.0185185
        k(   50) = (   0.3333333   0.1666667  -0.5000000), wk =   0.0185185
        k(   51) = (   0.3333333   0.1666667  -0.3333333), wk =   0.0185185
        k(   52) = (   0.3333333   0.1666667  -0.1666667), wk =   0.0185185
        k(   53) = (   0.3333333   0.3333333  -0.0000000), wk =   0.0185185
        k(   54) = (   0.3333333   0.3333333   0.1666667), wk =   0.0185185
        k(   55) = (   0.3333333   0.3333333   0.3333333), wk =   0.0185185
        k(   56) = (   0.3333333   0.3333333  -0.5000000), wk =   0.0185185
        k(   57) = (   0.3333333   0.3333333  -0.3333333), wk =   0.0185185
        k(   58) = (   0.3333333   0.3333333  -0.1666667), wk =   0.0185185
        k(   59) = (   0.3333333  -0.5000000  -0.0000000), wk =   0.0185185
        k(   60) = (   0.3333333  -0.5000000   0.1666667), wk =   0.0185185
        k(   61) = (   0.3333333  -0.5000000   0.3333333), wk =   0.0185185
        k(   62) = (   0.3333333  -0.5000000  -0.5000000), wk =   0.0185185
        k(   63) = (   0.3333333  -0.5000000  -0.3333333), wk =   0.0185185
        k(   64) = (   0.3333333  -0.5000000  -0.1666667), wk =   0.0185185
        k(   65) = (  -0.5000000   0.0000000   0.0000000), wk =   0.0092593
        k(   66) = (  -0.5000000   0.0000000   0.1666667), wk =   0.0185185
        k(   67) = (  -0.5000000   0.0000000   0.3333333), wk =   0.0185185
        k(   68) = (  -0.5000000   0.0000000  -0.5000000), wk =   0.0092593
        k(   69) = (  -0.5000000   0.1666667   0.0000000), wk =   0.0185185
        k(   70) = (  -0.5000000   0.1666667   0.1666667), wk =   0.0185185
        k(   71) = (  -0.5000000   0.1666667   0.3333333), wk =   0.0185185
        k(   72) = (  -0.5000000   0.1666667  -0.5000000), wk =   0.0185185
        k(   73) = (  -0.5000000   0.3333333   0.0000000), wk =   0.0185185
        k(   74) = (  -0.5000000   0.3333333   0.1666667), wk =   0.0185185
        k(   75) = (  -0.5000000   0.3333333   0.3333333), wk =   0.0185185
        k(   76) = (  -0.5000000   0.3333333  -0.5000000), wk =   0.0185185
        k(   77) = (  -0.5000000  -0.5000000   0.0000000), wk =   0.0092593
        k(   78) = (  -0.5000000  -0.5000000   0.1666667), wk =   0.0185185
        k(   79) = (  -0.5000000  -0.5000000   0.3333333), wk =   0.0185185
        k(   80) = (  -0.5000000  -0.5000000  -0.5000000), wk =   0.0092593
        k(   81) = (   0.0000000   0.1666667  -0.1666667), wk =   0.0185185
        k(   82) = (   0.0000000   0.1666667  -0.3333333), wk =   0.0185185
        k(   83) = (   0.0000000   0.3333333  -0.1666667), wk =   0.0185185
        k(   84) = (   0.0000000   0.3333333  -0.3333333), wk =   0.0185185
        k(   85) = (  -0.1666667   0.1666667   0.0000000), wk =   0.0185185
        k(   86) = (  -0.1666667   0.1666667  -0.1666667), wk =   0.0185185
        k(   87) = (  -0.1666667   0.1666667  -0.3333333), wk =   0.0185185
        k(   88) = (  -0.1666667   0.1666667   0.5000000), wk =   0.0185185
        k(   89) = (  -0.1666667   0.1666667   0.3333333), wk =   0.0185185
        k(   90) = (  -0.1666667   0.1666667   0.1666667), wk =   0.0185185
        k(   91) = (  -0.1666667   0.3333333   0.0000000), wk =   0.0185185
        k(   92) = (  -0.1666667   0.3333333  -0.1666667), wk =   0.0185185
        k(   93) = (  -0.1666667   0.3333333  -0.3333333), wk =   0.0185185
        k(   94) = (  -0.1666667   0.3333333   0.5000000), wk =   0.0185185
        k(   95) = (  -0.1666667   0.3333333   0.3333333), wk =   0.0185185
        k(   96) = (  -0.1666667   0.3333333   0.1666667), wk =   0.0185185
        k(   97) = (  -0.3333333   0.1666667   0.0000000), wk =   0.0185185
        k(   98) = (  -0.3333333   0.1666667  -0.1666667), wk =   0.0185185
        k(   99) = (  -0.3333333   0.1666667  -0.3333333), wk =   0.0185185
        k(  100) = (  -0.3333333   0.1666667   0.5000000), wk =   0.0185185
        k(  101) = (  -0.3333333   0.1666667   0.3333333), wk =   0.0185185
        k(  102) = (  -0.3333333   0.1666667   0.1666667), wk =   0.0185185
        k(  103) = (  -0.3333333   0.3333333   0.0000000), wk =   0.0185185
        k(  104) = (  -0.3333333   0.3333333  -0.1666667), wk =   0.0185185
        k(  105) = (  -0.3333333   0.3333333  -0.3333333), wk =   0.0185185
        k(  106) = (  -0.3333333   0.3333333   0.5000000), wk =   0.0185185
        k(  107) = (  -0.3333333   0.3333333   0.3333333), wk =   0.0185185
        k(  108) = (  -0.3333333   0.3333333   0.1666667), wk =   0.0185185
        k(  109) = (   0.5000000   0.1666667  -0.1666667), wk =   0.0185185
        k(  110) = (   0.5000000   0.1666667  -0.3333333), wk =   0.0185185
        k(  111) = (   0.5000000   0.3333333  -0.1666667), wk =   0.0185185
        k(  112) = (   0.5000000   0.3333333  -0.3333333), wk =   0.0185185

     Dense  grid:   476443 G-vectors     FFT dimensions: ( 100, 120,  96)

     Dynamical RAM for                 wfc:      12.62 MB

     Dynamical RAM for     wfc (w. buffer):      12.62 MB

     Dynamical RAM for           str. fact:       0.81 MB

     Dynamical RAM for           local pot:       0.00 MB

     Dynamical RAM for          nlocal pot:      15.04 MB

     Dynamical RAM for                qrad:       6.42 MB

     Dynamical RAM for          rho,v,vnew:       1.43 MB

     Dynamical RAM for           G-vectors:       0.86 MB

     Dynamical RAM for          h,s,v(r/c):       1.83 MB

     Dynamical RAM for          <psi|beta>:       4.55 MB

     Dynamical RAM for                 psi:      25.24 MB

     Dynamical RAM for                hpsi:      25.24 MB

     Dynamical RAM for      wfcinit/wfcrot:      30.96 MB

     Estimated static dynamical RAM per process >      39.56 MB

     Estimated max dynamical RAM per process >      96.42 MB

     Estimated total dynamical RAM >       3.39 GB

     The potential is recalculated from file :
     ./out/lcso.save/charge-density

     Starting wfcs are  236 randomized atomic wfcs +  264 random wfcs

     Band Structure Calculation
     Davidson diagonalization with overlap

     Computing kpt #:     1  of   112
     total cpu time spent up to now is       19.8 secs

     Computing kpt #:     2  of   112
     total cpu time spent up to now is       34.1 secs

     Computing kpt #:     3  of   112
     total cpu time spent up to now is       48.4 secs

     Computing kpt #:     4  of   112
     total cpu time spent up to now is       65.0 secs

     Computing kpt #:     5  of   112
     total cpu time spent up to now is       83.5 secs

     Computing kpt #:     6  of   112
     total cpu time spent up to now is       97.6 secs

     Computing kpt #:     7  of   112
     total cpu time spent up to now is      113.6 secs

     Computing kpt #:     8  of   112
     total cpu time spent up to now is      130.5 secs

     Computing kpt #:     9  of   112
     total cpu time spent up to now is      144.5 secs

     Computing kpt #:    10  of   112
     total cpu time spent up to now is      158.8 secs

     Computing kpt #:    11  of   112
     total cpu time spent up to now is      183.8 secs

     Computing kpt #:    12  of   112
     total cpu time spent up to now is      199.9 secs

     Computing kpt #:    13  of   112
     total cpu time spent up to now is      215.7 secs

     Computing kpt #:    14  of   112
     total cpu time spent up to now is      229.8 secs

     Computing kpt #:    15  of   112
     total cpu time spent up to now is      244.2 secs

     Computing kpt #:    16  of   112
     total cpu time spent up to now is      260.1 secs

     Computing kpt #:    17  of   112
     total cpu time spent up to now is      276.3 secs

     Computing kpt #:    18  of   112
     total cpu time spent up to now is      292.6 secs

     Computing kpt #:    19  of   112
     total cpu time spent up to now is      308.6 secs

     Computing kpt #:    20  of   112
     total cpu time spent up to now is      324.5 secs

     Computing kpt #:    21  of   112
     total cpu time spent up to now is      338.4 secs

     Computing kpt #:    22  of   112
     total cpu time spent up to now is      354.7 secs

     Computing kpt #:    23  of   112
     total cpu time spent up to now is      369.6 secs

     Computing kpt #:    24  of   112
     total cpu time spent up to now is      386.2 secs

     Computing kpt #:    25  of   112
     total cpu time spent up to now is      402.4 secs

     Computing kpt #:    26  of   112
     total cpu time spent up to now is      421.4 secs

     Computing kpt #:    27  of   112
     total cpu time spent up to now is      437.3 secs

     Computing kpt #:    28  of   112
     total cpu time spent up to now is      453.4 secs

     Computing kpt #:    29  of   112
     total cpu time spent up to now is      470.0 secs

     Computing kpt #:    30  of   112
     total cpu time spent up to now is      484.4 secs

     Computing kpt #:    31  of   112
     total cpu time spent up to now is      498.9 secs

     Computing kpt #:    32  of   112
     total cpu time spent up to now is      513.4 secs

     Computing kpt #:    33  of   112
     total cpu time spent up to now is      529.9 secs

     Computing kpt #:    34  of   112
     total cpu time spent up to now is      544.3 secs

     Computing kpt #:    35  of   112
     total cpu time spent up to now is      560.4 secs

     Computing kpt #:    36  of   112
     total cpu time spent up to now is      574.7 secs

     Computing kpt #:    37  of   112
     total cpu time spent up to now is      588.7 secs

     Computing kpt #:    38  of   112
     total cpu time spent up to now is      604.8 secs

     Computing kpt #:    39  of   112
     total cpu time spent up to now is      621.2 secs

     Computing kpt #:    40  of   112
     total cpu time spent up to now is      635.1 secs

     Computing kpt #:    41  of   112
     total cpu time spent up to now is      649.6 secs

     Computing kpt #:    42  of   112
     total cpu time spent up to now is      664.0 secs

     Computing kpt #:    43  of   112
     total cpu time spent up to now is      678.1 secs

     Computing kpt #:    44  of   112
     total cpu time spent up to now is      694.4 secs

     Computing kpt #:    45  of   112
     total cpu time spent up to now is      708.8 secs

     Computing kpt #:    46  of   112
     total cpu time spent up to now is      724.9 secs

     Computing kpt #:    47  of   112
     total cpu time spent up to now is      741.3 secs

     Computing kpt #:    48  of   112
     total cpu time spent up to now is      757.3 secs

     Computing kpt #:    49  of   112
     total cpu time spent up to now is      771.4 secs

     Computing kpt #:    50  of   112
     total cpu time spent up to now is      787.9 secs

     Computing kpt #:    51  of   112
     total cpu time spent up to now is      804.1 secs

     Computing kpt #:    52  of   112
     total cpu time spent up to now is      820.2 secs

     Computing kpt #:    53  of   112
     total cpu time spent up to now is      836.6 secs

     Computing kpt #:    54  of   112
     total cpu time spent up to now is      851.2 secs

     Computing kpt #:    55  of   112
     total cpu time spent up to now is      865.1 secs

     Computing kpt #:    56  of   112
     total cpu time spent up to now is      879.2 secs

     Computing kpt #:    57  of   112
     total cpu time spent up to now is      899.4 secs

     Computing kpt #:    58  of   112
     total cpu time spent up to now is      913.7 secs

     Computing kpt #:    59  of   112
     total cpu time spent up to now is      928.1 secs

     Computing kpt #:    60  of   112
     total cpu time spent up to now is      941.8 secs

     Computing kpt #:    61  of   112
     total cpu time spent up to now is      956.0 secs

     Computing kpt #:    62  of   112
     total cpu time spent up to now is      972.6 secs

     Computing kpt #:    63  of   112
     total cpu time spent up to now is      986.8 secs

     Computing kpt #:    64  of   112
     total cpu time spent up to now is     1003.3 secs

     Computing kpt #:    65  of   112
     total cpu time spent up to now is     1017.5 secs

     Computing kpt #:    66  of   112
     total cpu time spent up to now is     1038.0 secs

     Computing kpt #:    67  of   112
     total cpu time spent up to now is     1052.3 secs

     Computing kpt #:    68  of   112
     total cpu time spent up to now is     1068.3 secs

     Computing kpt #:    69  of   112
     total cpu time spent up to now is     1084.6 secs

     Computing kpt #:    70  of   112
     total cpu time spent up to now is     1101.3 secs

     Computing kpt #:    71  of   112
     total cpu time spent up to now is     1117.2 secs

     Computing kpt #:    72  of   112
     total cpu time spent up to now is     1133.6 secs

     Computing kpt #:    73  of   112
     total cpu time spent up to now is     1149.6 secs

     Computing kpt #:    74  of   112
     total cpu time spent up to now is     1165.6 secs

     Computing kpt #:    75  of   112
     total cpu time spent up to now is     1179.7 secs

     Computing kpt #:    76  of   112
     total cpu time spent up to now is     1193.7 secs

     Computing kpt #:    77  of   112
     total cpu time spent up to now is     1207.8 secs

     Computing kpt #:    78  of   112
     total cpu time spent up to now is     1223.8 secs

     Computing kpt #:    79  of   112
     total cpu time spent up to now is     1238.2 secs

     Computing kpt #:    80  of   112
     total cpu time spent up to now is     1252.2 secs

     Computing kpt #:    81  of   112
     total cpu time spent up to now is     1266.7 secs

     Computing kpt #:    82  of   112
     total cpu time spent up to now is     1280.9 secs

     Computing kpt #:    83  of   112
     total cpu time spent up to now is     1295.1 secs

     Computing kpt #:    84  of   112
     total cpu time spent up to now is     1309.2 secs

     Computing kpt #:    85  of   112
     total cpu time spent up to now is     1325.5 secs

     Computing kpt #:    86  of   112
     total cpu time spent up to now is     1341.6 secs

     Computing kpt #:    87  of   112
     total cpu time spent up to now is     1356.1 secs

     Computing kpt #:    88  of   112
     total cpu time spent up to now is     1370.5 secs

     Computing kpt #:    89  of   112
     total cpu time spent up to now is     1386.6 secs

     Computing kpt #:    90  of   112
     total cpu time spent up to now is     1402.8 secs

     Computing kpt #:    91  of   112
     total cpu time spent up to now is     1417.1 secs

     Computing kpt #:    92  of   112
     total cpu time spent up to now is     1433.7 secs

     Computing kpt #:    93  of   112
     total cpu time spent up to now is     1448.9 secs

     Computing kpt #:    94  of   112
     total cpu time spent up to now is     1470.8 secs

     Computing kpt #:    95  of   112
     total cpu time spent up to now is     1487.1 secs

     Computing kpt #:    96  of   112
     total cpu time spent up to now is     1501.5 secs

     Computing kpt #:    97  of   112
     total cpu time spent up to now is     1524.2 secs

     Computing kpt #:    98  of   112
     total cpu time spent up to now is     1540.2 secs

     Computing kpt #:    99  of   112
     total cpu time spent up to now is     1564.3 secs

     Computing kpt #:   100  of   112
     total cpu time spent up to now is     1583.7 secs

     Computing kpt #:   101  of   112
     total cpu time spent up to now is     1599.5 secs

     Computing kpt #:   102  of   112
     total cpu time spent up to now is     1613.9 secs

     Computing kpt #:   103  of   112
     total cpu time spent up to now is     1630.3 secs

     Computing kpt #:   104  of   112
     total cpu time spent up to now is     1644.5 secs

     Computing kpt #:   105  of   112
     total cpu time spent up to now is     1658.9 secs

     Computing kpt #:   106  of   112
     total cpu time spent up to now is     1673.3 secs

     Computing kpt #:   107  of   112
     total cpu time spent up to now is     1689.3 secs

     Computing kpt #:   108  of   112
     total cpu time spent up to now is     1710.2 secs

     Computing kpt #:   109  of   112
     total cpu time spent up to now is     1729.3 secs

     Computing kpt #:   110  of   112
     total cpu time spent up to now is     1745.5 secs

     Computing kpt #:   111  of   112
     total cpu time spent up to now is     1760.0 secs

     Computing kpt #:   112  of   112
     total cpu time spent up to now is     1774.4 secs

     ethr =  5.00E-06,  avg # of iterations = 20.5

     total cpu time spent up to now is     1774.5 secs

     End of band structure calculation

          k = 0.0000 0.0000 0.0000 ( 59589 PWs)   bands (ev):

   -86.0891 -86.0857 -85.7771 -85.7770 -85.7764 -85.7762 -49.6022 -49.5990
   -49.4976 -49.4942 -49.4263 -49.4229 -49.3934 -49.3932 -49.3926 -49.3924
   -49.1810 -49.1803 -49.1798 -49.1791 -49.0424 -49.0417 -49.0403 -49.0396
   -42.5864 -42.5864 -42.5863 -42.5863 -42.5781 -42.5780 -42.5779 -42.5779
   -42.5626 -42.5626 -42.5624 -42.5624 -42.5587 -42.5587 -42.5585 -42.5585
   -42.4432 -42.4432 -42.4431 -42.4431 -42.4275 -42.4275 -42.4274 -42.4274
   -42.4235 -42.4235 -42.4233 -42.4233 -42.4148 -42.4148 -42.4146 -42.4146
   -42.3731 -42.3731 -42.3729 -42.3729 -42.3616 -42.3616 -42.3614 -42.3614
   -35.9426 -35.9424 -35.9419 -35.9417 -14.2344 -14.0037 -13.9408 -13.9331
   -13.9259 -13.8899 -13.8023 -13.8016 -11.6341 -11.4609 -11.4151 -11.3860
   -11.3844 -11.2653 -11.2625 -11.2393 -11.2266 -11.1990 -11.1776 -11.1528
   -11.1397 -11.1380 -11.0622 -10.9772  -4.3739  -4.2032  -4.1689  -3.9932
    -3.9461  -3.8816  -3.7383  -3.6126  -0.0860   0.1173   0.2642   0.3625
     0.4254   0.4313   0.5595   0.5965   0.5981   0.7576   0.8188   0.9355
     0.9935   1.0024   1.0360   1.0463   1.2252   1.2526   1.3788   1.4230
     1.4608   1.6745   1.6865   1.8982   2.8983   2.9865   3.0821   3.1852
     3.2016   3.2073   3.2200   3.3398   3.3829   3.4933   3.5014   3.6085
     3.6683   3.8028   3.8104   3.8771   3.8890   3.9141   3.9982   4.0636
     4.1050   4.1773   4.2687   4.3121   4.3340   4.3586   4.6721   4.6812
     4.7515   4.7603   4.7685   4.8498   4.8939   4.9631   5.1580   5.2071
     5.2436   5.2803   5.2885   5.3335   5.3839   5.3893   5.4003   5.4684
     5.4875   5.6755   5.7443   6.1495   7.5232   7.6373   7.7496   7.7683
     7.8075   7.8344   7.8999   7.9144   7.9475   7.9888   8.0046   8.0107
     8.0321   8.0962   8.1147   8.1526   8.1853   8.2721   8.3228   8.4801
     8.4812   8.5274   8.6419   8.7208   8.7384   8.9062   8.9283   8.9472
     8.9566   9.0770  11.0210  11.2766  11.3136  11.3779  11.4560  11.5151
    11.7384  11.8552  11.8806  11.9753  12.0757  12.0913  12.1041  12.4281
    12.4366  12.4863  12.6247  12.9839  13.1105  13.3000  13.6245  13.6857
    13.8900  13.8972  14.0956  15.1379  15.5843  15.8576  15.8685  15.8756
    16.0777  16.4356  16.4846  16.6698  16.7004  16.7845  16.8075  16.9031
    16.9285  17.2609  17.3281  17.3740  17.7580  17.8600  17.9125  17.9497
    18.0797  18.1039  18.1476  18.3466  18.3906  18.4533  18.5890  18.7832
    18.9511  19.1112  19.2056  19.3563  19.4397  19.5382  19.6377  19.7001
    19.7336  19.7431  19.7472  20.0214  20.1789  20.3195  20.4634  20.5071
    20.5265  20.6635  20.8924  21.0608  21.1657  21.1989  21.3205  21.3288
    21.3531  21.6173  21.6918  21.8059  21.8836  21.9889  22.1459  22.2356
    22.3188  22.6063  22.6345  22.6788  22.9302  22.9794  23.0887  23.3994
    23.4422  23.6495  23.6747  23.7813  23.8288  23.9811  24.2098  24.3329
    24.3515  24.4798  24.6831  24.7133  25.0864  25.0886  25.1330  25.2622
    25.3422  25.7247  25.7250  25.7819  25.8663  25.8846  25.9462  26.0008
    26.2005  26.4159  26.5089  26.6159  26.6186  26.7305  26.7536  27.1882
    27.3536  27.3925  27.4333  27.4894  27.6816  27.7196  27.7528  28.0708
    28.0970  28.4028  28.5849  28.6240  28.6766  28.7928  28.7964  28.9329
    29.0657  29.1275  29.3340  29.4155  29.5298  29.5717  29.7952  29.9514
    30.2100  30.3403  30.3643  30.5696  30.6007  30.8074  30.8921  30.9833
    31.1546  31.1625  31.1725  31.3483  31.6057  31.6382  31.7174  31.7319
    31.8087  31.8446  32.0199  32.0603  32.1324  32.1943  32.2484  32.2561
    32.3527  32.4975  32.6584  32.7709  32.8019  33.0215  33.1349  33.3923
    33.4712  33.5360  33.5694  33.6126  33.6844  33.8842  33.9354  34.0700
    34.1525  34.1716  34.2174  34.3437  34.5597  34.5972  34.6462  34.6641
    34.7805  34.9153  35.0136  35.0553  35.2124  35.3625  35.4749  35.6343
    35.6652  35.6690  35.9516  35.9768  35.9944  36.0303  36.3377  36.3521
    36.3829  36.4233  36.5312  36.7008  36.7660  36.8284  36.8342  36.9371
    37.0152  37.1858  37.2003  37.2795  37.2909  37.6084  37.6293  37.7007
    37.8334  37.8367  38.0424  38.1414  38.1682  38.2874  38.2914  38.3025
    38.3721  38.3871  38.4468  38.4704  38.7305  38.8357  38.8472  38.9227
    39.1677  39.2047  39.3028  39.4459  39.4862  39.5260  39.5368  39.7099
    39.8893  39.9247  39.9506  40.0566  40.1513  40.1873  40.2175  40.4870
    40.4911  40.5190  40.5557  40.6706  40.7081  40.7190  40.7342  40.8318
    40.9109  41.0162  41.0697  41.1034  41.2521  41.3027  41.4613  41.5457
    41.5719  41.6877  41.7376  41.7861  41.9804  42.0075  42.1277  42.1935
    42.3425  42.4016  42.5380  42.5488  42.5601  42.6933  42.7447  42.8826
    42.9915  42.9942  43.1631  43.1738

     occupation numbers 
     1.0000   1.0000   1.0000   1.0000   1.0000   1.0000   1.0000   1.0000
     1.0000   1.0000   1.0000   1.0000   1.0000   1.0000   1.0000   1.0000
     1.0000   1.0000   1.0000   1.0000   1.0000   1.0000   1.0000   1.0000
     1.0000   1.0000   1.0000   1.0000   1.0000   1.0000   1.0000   1.0000
     1.0000   1.0000   1.0000   1.0000   1.0000   1.0000   1.0000   1.0000
     1.0000   1.0000   1.0000   1.0000   1.0000   1.0000   1.0000   1.0000
     1.0000   1.0000   1.0000   1.0000   1.0000   1.0000   1.0000   1.0000
     1.0000   1.0000   1.0000   1.0000   1.0000   1.0000   1.0000   1.0000
     1.0000   1.0000   1.0000   1.0000   1.0000   1.0000   1.0000   1.0000
     1.0000   1.0000   1.0000   1.0000   1.0000   1.0000   1.0000   1.0000
     1.0000   1.0000   1.0000   1.0000   1.0000   1.0000   1.0000   1.0000
     1.0000   1.0000   1.0000   1.0000   1.0000   1.0000   1.0000   1.0000
     1.0000   1.0000   1.0000   1.0000   1.0000   1.0000   1.0000   1.0000
     1.0000   1.0000   1.0000   1.0000   1.0000   1.0000   1.0000   1.0000
     1.0000   1.0000   1.0000   1.0000   1.0000   1.0000   1.0000   1.0000
     1.0000   1.0000   1.0000   1.0000   1.0000   1.0000   1.0000   1.0000
     1.0000   1.0000   1.0000   1.0000   1.0000   1.0000   1.0000   1.0000
     1.0000   1.0000   1.0000   1.0000   1.0000   1.0000   1.0000   1.0000
     1.0000   1.0000   1.0000   1.0000   1.0000   1.0000   1.0000   1.0000
     1.0000   1.0000   1.0000   1.0000   1.0000   1.0000   1.0000   1.0000
     1.0000   1.0000   1.0000   1.0000   1.0000   1.0000   1.0000   1.0000
     1.0000   1.0000   1.0000   1.0000   1.0000   1.0000   1.0000   1.0000
     1.0000   1.0000   1.0000   1.0000   1.0000   1.0000   1.0000   1.0000
     1.0000   1.0000   1.0000   1.0000   1.0000   1.0000   1.0000   1.0000
     1.0000   1.0320   0.0000   0.0000   0.0000   0.0000   0.0000   0.0000
     0.0000   0.0000   0.0000   0.0000   0.0000   0.0000   0.0000   0.0000
     0.0000   0.0000   0.0000   0.0000   0.0000   0.0000   0.0000   0.0000
     0.0000   0.0000   0.0000   0.0000   0.0000   0.0000   0.0000   0.0000
     0.0000   0.0000   0.0000   0.0000   0.0000   0.0000   0.0000   0.0000
     0.0000   0.0000   0.0000   0.0000   0.0000   0.0000   0.0000   0.0000
     0.0000   0.0000   0.0000   0.0000   0.0000   0.0000   0.0000   0.0000
     0.0000   0.0000   0.0000   0.0000   0.0000   0.0000   0.0000   0.0000
     0.0000   0.0000   0.0000   0.0000   0.0000   0.0000   0.0000   0.0000
     0.0000   0.0000   0.0000   0.0000   0.0000   0.0000   0.0000   0.0000
     0.0000   0.0000   0.0000   0.0000   0.0000   0.0000   0.0000   0.0000
     0.0000   0.0000   0.0000   0.0000   0.0000   0.0000   0.0000   0.0000
     0.0000   0.0000   0.0000   0.0000   0.0000   0.0000   0.0000   0.0000
     0.0000   0.0000   0.0000   0.0000   0.0000   0.0000   0.0000   0.0000
     0.0000   0.0000   0.0000   0.0000   0.0000   0.0000   0.0000   0.0000
     0.0000   0.0000   0.0000   0.0000   0.0000   0.0000   0.0000   0.0000
     0.0000   0.0000   0.0000   0.0000   0.0000   0.0000   0.0000   0.0000
     0.0000   0.0000   0.0000   0.0000   0.0000   0.0000   0.0000   0.0000
     0.0000   0.0000   0.0000   0.0000   0.0000   0.0000   0.0000   0.0000
     0.0000   0.0000   0.0000   0.0000   0.0000   0.0000   0.0000   0.0000
     0.0000   0.0000   0.0000   0.0000   0.0000   0.0000   0.0000   0.0000
     0.0000   0.0000   0.0000   0.0000   0.0000   0.0000   0.0000   0.0000
     0.0000   0.0000   0.0000   0.0000   0.0000   0.0000   0.0000   0.0000
     0.0000   0.0000   0.0000   0.0000   0.0000   0.0000   0.0000   0.0000
     0.0000   0.0000   0.0000   0.0000   0.0000   0.0000   0.0000   0.0000
     0.0000   0.0000   0.0000   0.0000   0.0000   0.0000   0.0000   0.0000
     0.0000   0.0000   0.0000   0.0000   0.0000   0.0000   0.0000   0.0000
     0.0000   0.0000   0.0000   0.0000   0.0000   0.0000   0.0000   0.0000
     0.0000   0.0000   0.0000   0.0000   0.0000   0.0000   0.0000   0.0000
     0.0000   0.0000   0.0000   0.0000   0.0000   0.0000   0.0000   0.0000
     0.0000   0.0000   0.0000   0.0000   0.0000   0.0000   0.0000   0.0000
     0.0000   0.0000   0.0000   0.0000   0.0000   0.0000   0.0000   0.0000
     0.0000   0.0000   0.0000   0.0000   0.0000   0.0000   0.0000   0.0000
     0.0000   0.0000   0.0000   0.0000   0.0000   0.0000   0.0000   0.0000
     0.0000   0.0000   0.0000   0.0000   0.0000   0.0000   0.0000   0.0000
     0.0000   0.0000   0.0000   0.0000   0.0000   0.0000   0.0000   0.0000
     0.0000   0.0000   0.0000   0.0000   0.0000   0.0000   0.0000   0.0000
     0.0000   0.0000   0.0000   0.0000   0.0000   0.0000   0.0000   0.0000
     0.0000   0.0000   0.0000   0.0000

          k = 0.0000 0.0000 0.1923 ( 59574 PWs)   bands (ev):

   -86.0891 -86.0857 -85.7771 -85.7770 -85.7764 -85.7762 -49.6022 -49.5990
   -49.4976 -49.4942 -49.4263 -49.4229 -49.3934 -49.3932 -49.3926 -49.3924
   -49.1810 -49.1803 -49.1798 -49.1791 -49.0424 -49.0417 -49.0403 -49.0396
   -42.5864 -42.5864 -42.5863 -42.5863 -42.5781 -42.5780 -42.5779 -42.5779
   -42.5626 -42.5626 -42.5624 -42.5624 -42.5587 -42.5587 -42.5585 -42.5585
   -42.4432 -42.4432 -42.4431 -42.4431 -42.4275 -42.4275 -42.4274 -42.4274
   -42.4235 -42.4235 -42.4233 -42.4233 -42.4148 -42.4148 -42.4146 -42.4146
   -42.3731 -42.3731 -42.3729 -42.3729 -42.3616 -42.3616 -42.3614 -42.3614
   -35.9426 -35.9424 -35.9419 -35.9417 -14.2157 -13.9953 -13.9539 -13.9341
   -13.9288 -13.8863 -13.8175 -13.8072 -11.6256 -11.4637 -11.4289 -11.4089
   -11.3609 -11.2669 -11.2617 -11.2273 -11.2213 -11.1919 -11.1731 -11.1509
   -11.1414 -11.1305 -11.0673 -10.9907  -4.3541  -4.2107  -4.1565  -4.0036
    -3.9716  -3.8429  -3.7470  -3.6326  -0.0662   0.0888   0.2457   0.3661
     0.3775   0.4302   0.4600   0.5945   0.6578   0.7444   0.8060   0.9105
     0.9123   0.9535   1.0586   1.1313   1.2100   1.2364   1.4092   1.4374
     1.4984   1.6745   1.7658   1.9417   2.9516   3.0080   3.1113   3.2089
     3.2101   3.2463   3.2477   3.3524   3.3528   3.4562   3.4906   3.5933
     3.6706   3.7070   3.8314   3.8769   3.8919   3.9102   4.0634   4.0729
     4.1654   4.1731   4.2436   4.3331   4.3744   4.3895   4.6074   4.6215
     4.6766   4.7620   4.7726   4.8770   4.9641   4.9874   5.0975   5.1806
     5.1990   5.2473   5.3253   5.3259   5.3705   5.4081   5.4650   5.4925
     5.4942   5.6420   5.7100   6.0817   7.5356   7.6295   7.7545   7.7801
     7.8090   7.8250   7.8995   7.9113   7.9584   7.9934   7.9941   8.0091
     8.0471   8.0901   8.1218   8.1520   8.1921   8.2724   8.3532   8.4573
     8.4904   8.5676   8.6449   8.7374   8.7453   8.8667   8.8699   8.9411
     8.9459   9.0677  11.0302  11.2497  11.3118  11.4222  11.4277  11.5399
    11.7134  11.8517  11.8885  11.9720  12.0442  12.0907  12.1680  12.3767
    12.4372  12.4734  12.6569  12.9196  13.0839  13.1537  13.5538  13.7426
    13.8725  13.9074  14.2118  15.2387  15.5536  15.7485  15.8130  16.0981
    16.1802  16.4579  16.5135  16.5521  16.5670  16.7371  16.7695  17.0950
    17.1052  17.2499  17.3598  17.4214  17.6426  17.8622  17.8731  17.9639
    18.0425  18.0887  18.1242  18.4113  18.4476  18.5162  18.6442  18.7991
    18.9235  19.0916  19.1350  19.2576  19.4325  19.4895  19.6146  19.6981
    19.7909  19.8045  19.9180  20.0015  20.0864  20.1553  20.4836  20.5009
    20.6916  20.7237  20.7973  20.8605  21.1572  21.1738  21.2653  21.3705
    21.4536  21.6628  21.6774  21.7600  21.9257  22.0281  22.1958  22.2872
    22.4305  22.4727  22.6952  22.8642  22.9339  23.0009  23.1278  23.2377
    23.4394  23.4757  23.5852  23.6879  23.8169  24.0815  24.1057  24.1563
    24.1726  24.6413  24.6948  24.8516  24.9944  25.1034  25.3162  25.3373
    25.3419  25.5417  25.6388  25.7891  25.8301  25.9566  26.0319  26.0688
    26.2087  26.2631  26.3654  26.4506  26.7559  26.8942  26.9330  27.1087
    27.2720  27.3260  27.4118  27.4544  27.6278  27.9722  27.9916  27.9958
    28.1897  28.3955  28.5522  28.6134  28.6384  28.8810  28.9103  28.9535
    29.0575  29.1784  29.4048  29.4250  29.5688  29.6506  29.8776  29.9333
    30.0110  30.2453  30.3238  30.4405  30.6321  30.6458  30.8283  30.9444
    30.9905  31.1023  31.1056  31.1898  31.3696  31.6093  31.6518  31.7304
    31.7498  31.9182  32.0418  32.1793  32.2522  32.3159  32.3598  32.3768
    32.5852  32.6759  32.7318  32.8816  32.9297  33.0086  33.1012  33.3222
    33.4284  33.4960  33.7033  33.7175  33.7925  33.8833  33.9082  33.9359
    34.1426  34.1877  34.2211  34.2882  34.4799  34.5868  34.6464  34.7193
    34.7715  34.9346  35.0300  35.1098  35.1991  35.2563  35.4014  35.4887
    35.5092  35.5332  35.7246  35.9052  36.0098  36.0725  36.2082  36.3366
    36.4039  36.5431  36.6131  36.6692  36.7380  36.8469  37.0168  37.1218
    37.2464  37.2917  37.3012  37.3273  37.4158  37.4342  37.5106  37.5828
    37.7733  37.8190  37.9497  38.0696  38.1035  38.1521  38.2033  38.2259
    38.3164  38.4055  38.4262  38.6017  38.7819  38.7918  38.8085  39.0239
    39.0867  39.1078  39.2487  39.2589  39.3867  39.5486  39.6391  39.6465
    39.7931  39.8821  39.9745  40.0195  40.0565  40.1829  40.2244  40.2751
    40.3230  40.4539  40.5700  40.6695  40.7121  40.7973  40.8109  41.0341
    41.0503  41.1136  41.1600  41.2265  41.3294  41.3959  41.4623  41.5687
    41.7447  41.7626  41.8152  41.9373  41.9942  42.1861  42.3261  42.3416
    42.3850  42.4062  42.5039  42.5727  42.6471  42.6553  42.6806  42.7229
    43.0186  43.0674  43.1493  43.2146

     occupation numbers 
     1.0000   1.0000   1.0000   1.0000   1.0000   1.0000   1.0000   1.0000
     1.0000   1.0000   1.0000   1.0000   1.0000   1.0000   1.0000   1.0000
     1.0000   1.0000   1.0000   1.0000   1.0000   1.0000   1.0000   1.0000
     1.0000   1.0000   1.0000   1.0000   1.0000   1.0000   1.0000   1.0000
     1.0000   1.0000   1.0000   1.0000   1.0000   1.0000   1.0000   1.0000
     1.0000   1.0000   1.0000   1.0000   1.0000   1.0000   1.0000   1.0000
     1.0000   1.0000   1.0000   1.0000   1.0000   1.0000   1.0000   1.0000
     1.0000   1.0000   1.0000   1.0000   1.0000   1.0000   1.0000   1.0000
     1.0000   1.0000   1.0000   1.0000   1.0000   1.0000   1.0000   1.0000
     1.0000   1.0000   1.0000   1.0000   1.0000   1.0000   1.0000   1.0000
     1.0000   1.0000   1.0000   1.0000   1.0000   1.0000   1.0000   1.0000
     1.0000   1.0000   1.0000   1.0000   1.0000   1.0000   1.0000   1.0000
     1.0000   1.0000   1.0000   1.0000   1.0000   1.0000   1.0000   1.0000
     1.0000   1.0000   1.0000   1.0000   1.0000   1.0000   1.0000   1.0000
     1.0000   1.0000   1.0000   1.0000   1.0000   1.0000   1.0000   1.0000
     1.0000   1.0000   1.0000   1.0000   1.0000   1.0000   1.0000   1.0000
     1.0000   1.0000   1.0000   1.0000   1.0000   1.0000   1.0000   1.0000
     1.0000   1.0000   1.0000   1.0000   1.0000   1.0000   1.0000   1.0000
     1.0000   1.0000   1.0000   1.0000   1.0000   1.0000   1.0000   1.0000
     1.0000   1.0000   1.0000   1.0000   1.0000   1.0000   1.0000   1.0000
     1.0000   1.0000   1.0000   1.0000   1.0000   1.0000   1.0000   1.0000
     1.0000   1.0000   1.0000   1.0000   1.0000   1.0000   1.0000   1.0000
     1.0000   1.0000   1.0000   1.0000   1.0000   1.0000   1.0000   1.0000
     1.0000   1.0000   1.0000   1.0000   1.0000   1.0000   1.0000   1.0000
     1.0000   0.0005   0.0000   0.0000   0.0000   0.0000   0.0000   0.0000
     0.0000   0.0000   0.0000   0.0000   0.0000   0.0000   0.0000   0.0000
     0.0000   0.0000   0.0000   0.0000   0.0000   0.0000   0.0000   0.0000
     0.0000   0.0000   0.0000   0.0000   0.0000   0.0000   0.0000   0.0000
     0.0000   0.0000   0.0000   0.0000   0.0000   0.0000   0.0000   0.0000
     0.0000   0.0000   0.0000   0.0000   0.0000   0.0000   0.0000   0.0000
     0.0000   0.0000   0.0000   0.0000   0.0000   0.0000   0.0000   0.0000
     0.0000   0.0000   0.0000   0.0000   0.0000   0.0000   0.0000   0.0000
     0.0000   0.0000   0.0000   0.0000   0.0000   0.0000   0.0000   0.0000
     0.0000   0.0000   0.0000   0.0000   0.0000   0.0000   0.0000   0.0000
     0.0000   0.0000   0.0000   0.0000   0.0000   0.0000   0.0000   0.0000
     0.0000   0.0000   0.0000   0.0000   0.0000   0.0000   0.0000   0.0000
     0.0000   0.0000   0.0000   0.0000   0.0000   0.0000   0.0000   0.0000
     0.0000   0.0000   0.0000   0.0000   0.0000   0.0000   0.0000   0.0000
     0.0000   0.0000   0.0000   0.0000   0.0000   0.0000   0.0000   0.0000
     0.0000   0.0000   0.0000   0.0000   0.0000   0.0000   0.0000   0.0000
     0.0000   0.0000   0.0000   0.0000   0.0000   0.0000   0.0000   0.0000
     0.0000   0.0000   0.0000   0.0000   0.0000   0.0000   0.0000   0.0000
     0.0000   0.0000   0.0000   0.0000   0.0000   0.0000   0.0000   0.0000
     0.0000   0.0000   0.0000   0.0000   0.0000   0.0000   0.0000   0.0000
     0.0000   0.0000   0.0000   0.0000   0.0000   0.0000   0.0000   0.0000
     0.0000   0.0000   0.0000   0.0000   0.0000   0.0000   0.0000   0.0000
     0.0000   0.0000   0.0000   0.0000   0.0000   0.0000   0.0000   0.0000
     0.0000   0.0000   0.0000   0.0000   0.0000   0.0000   0.0000   0.0000
     0.0000   0.0000   0.0000   0.0000   0.0000   0.0000   0.0000   0.0000
     0.0000   0.0000   0.0000   0.0000   0.0000   0.0000   0.0000   0.0000
     0.0000   0.0000   0.0000   0.0000   0.0000   0.0000   0.0000   0.0000
     0.0000   0.0000   0.0000   0.0000   0.0000   0.0000   0.0000   0.0000
     0.0000   0.0000   0.0000   0.0000   0.0000   0.0000   0.0000   0.0000
     0.0000   0.0000   0.0000   0.0000   0.0000   0.0000   0.0000   0.0000
     0.0000   0.0000   0.0000   0.0000   0.0000   0.0000   0.0000   0.0000
     0.0000   0.0000   0.0000   0.0000   0.0000   0.0000   0.0000   0.0000
     0.0000   0.0000   0.0000   0.0000   0.0000   0.0000   0.0000   0.0000
     0.0000   0.0000   0.0000   0.0000   0.0000   0.0000   0.0000   0.0000
     0.0000   0.0000   0.0000   0.0000   0.0000   0.0000   0.0000   0.0000
     0.0000   0.0000   0.0000   0.0000   0.0000   0.0000   0.0000   0.0000
     0.0000   0.0000   0.0000   0.0000   0.0000   0.0000   0.0000   0.0000
     0.0000   0.0000   0.0000   0.0000   0.0000   0.0000   0.0000   0.0000
     0.0000   0.0000   0.0000   0.0000

          k = 0.0000 0.0000 0.3845 ( 59517 PWs)   bands (ev):

   -86.0891 -86.0857 -85.7771 -85.7770 -85.7764 -85.7762 -49.6022 -49.5990
   -49.4976 -49.4942 -49.4263 -49.4229 -49.3934 -49.3932 -49.3926 -49.3924
   -49.1810 -49.1803 -49.1798 -49.1791 -49.0424 -49.0417 -49.0403 -49.0396
   -42.5864 -42.5864 -42.5863 -42.5863 -42.5781 -42.5780 -42.5779 -42.5779
   -42.5626 -42.5626 -42.5624 -42.5624 -42.5587 -42.5587 -42.5585 -42.5585
   -42.4432 -42.4432 -42.4431 -42.4431 -42.4275 -42.4275 -42.4274 -42.4274
   -42.4235 -42.4235 -42.4233 -42.4233 -42.4148 -42.4148 -42.4146 -42.4146
   -42.3731 -42.3731 -42.3729 -42.3729 -42.3616 -42.3616 -42.3614 -42.3614
   -35.9426 -35.9424 -35.9419 -35.9417 -14.1634 -14.0116 -13.9751 -13.9378
   -13.9127 -13.8761 -13.8415 -13.8344 -11.5971 -11.4824 -11.4633 -11.4362
   -11.3109 -11.2648 -11.2575 -11.2371 -11.1977 -11.1691 -11.1592 -11.1550
   -11.1443 -11.1060 -11.0847 -11.0263  -4.3020  -4.2107  -4.1594  -4.0823
    -3.9013  -3.8117  -3.7634  -3.6907  -0.0236   0.0393   0.2150   0.2667
     0.3576   0.3611   0.5023   0.6163   0.6849   0.7003   0.7316   0.8152
     0.8883   0.9488   0.9623   1.1191   1.2448   1.2860   1.3652   1.4437
     1.6421   1.7221   1.9420   2.0265   3.0590   3.0746   3.1588   3.1865
     3.2708   3.2839   3.3009   3.3224   3.3892   3.4442   3.4710   3.5503
     3.5719   3.6047   3.7995   3.8534   3.9276   4.0221   4.0616   4.0737
     4.2243   4.2342   4.2684   4.3038   4.4024   4.4347   4.5848   4.5991
     4.6339   4.7082   4.7446   4.9009   4.9215   5.0358   5.0757   5.1389
     5.1936   5.2041   5.3234   5.3477   5.3927   5.4328   5.4682   5.4961
     5.5369   5.5884   5.6686   5.9300   7.5577   7.6027   7.7504   7.7976
     7.8093   7.8326   7.8893   7.9043   7.9852   7.9857   7.9995   8.0058
     8.0659   8.0757   8.1298   8.1486   8.2083   8.2600   8.4447   8.4530
     8.5103   8.6117   8.6684   8.7138   8.7609   8.7939   8.8082   8.8819
     8.9538   9.0450  11.0790  11.2021  11.2517  11.3064  11.5091  11.6869
    11.6977  11.7999  11.9257  11.9748  11.9809  12.1456  12.2628  12.2967
    12.3855  12.5017  12.6984  12.8260  12.8508  12.9796  13.5591  13.7583
    13.8098  13.8110  14.5894  15.3847  15.4868  15.6786  15.8700  16.2019
    16.2667  16.2781  16.4296  16.5141  16.6696  16.7448  16.9791  17.1150
    17.2407  17.3706  17.4343  17.4673  17.5541  17.6342  17.9205  17.9964
    18.0008  18.1565  18.2104  18.4192  18.4747  18.6715  18.7016  18.7859
    18.8466  18.9127  19.1357  19.2390  19.2644  19.4988  19.5716  19.6876
    19.8479  19.9217  20.0120  20.0245  20.0795  20.2335  20.3397  20.4495
    20.4629  20.7189  20.8287  20.8981  21.0186  21.0525  21.3393  21.3523
    21.5689  21.6230  21.6605  21.8701  21.9956  22.0764  22.1840  22.3055
    22.4289  22.6227  22.6978  22.7808  22.8897  23.0891  23.1988  23.2705
    23.4996  23.5262  23.5715  23.5948  23.7772  23.8736  24.0379  24.0891
    24.2268  24.5336  24.5504  24.7048  24.9492  25.1573  25.2490  25.2671
    25.3849  25.3871  25.7021  25.7342  25.9372  25.9905  26.0221  26.0675
    26.1930  26.2119  26.3302  26.3859  26.8174  26.9801  27.1049  27.1502
    27.2310  27.2393  27.3412  27.7146  27.7358  28.0665  28.1173  28.1209
    28.3737  28.4440  28.4446  28.6565  28.6833  28.7845  28.8207  29.0839
    29.1801  29.2611  29.4171  29.4474  29.5660  29.5879  29.7686  30.0285
    30.1217  30.1882  30.1892  30.4127  30.4628  30.6358  30.7112  30.8730
    30.9381  31.0120  31.1940  31.2415  31.3195  31.3992  31.5127  31.6916
    31.7940  31.8886  32.0149  32.2998  32.3393  32.3546  32.3964  32.5019
    32.6031  32.6467  32.7269  32.8082  32.9006  33.0341  33.2729  33.2843
    33.3964  33.4368  33.5708  33.7268  33.7835  33.8228  33.9319  34.1543
    34.1745  34.3019  34.3283  34.3854  34.4223  34.6105  34.6250  34.6715
    34.7813  34.8011  34.9740  35.0254  35.1057  35.2045  35.2616  35.3950
    35.5231  35.5880  35.8282  35.9565  36.0474  36.0877  36.1070  36.2682
    36.3433  36.3487  36.7388  36.7596  36.8316  37.0047  37.0371  37.0872
    37.1212  37.1838  37.2304  37.3943  37.4203  37.5175  37.5498  37.6111
    37.6235  37.8933  37.9534  38.0436  38.1437  38.1450  38.2092  38.2756
    38.2981  38.3823  38.4889  38.5953  38.6962  38.8099  39.0118  39.0187
    39.0601  39.1663  39.1871  39.2534  39.3703  39.4428  39.5048  39.6427
    39.7298  39.7898  39.8946  39.9679  39.9999  40.1491  40.2895  40.3573
    40.4033  40.4704  40.4955  40.5541  40.7187  40.7314  40.8682  40.9172
    40.9294  41.0619  41.2258  41.3405  41.3508  41.4368  41.5836  41.6234
    41.6773  41.7432  41.7749  42.0343  42.0635  42.1460  42.2286  42.2462
    42.3213  42.4617  42.4625  42.6391  42.6806  42.7408  42.8521  42.9050
    42.9530  42.9537  43.0698  43.1278

     occupation numbers 
     1.0000   1.0000   1.0000   1.0000   1.0000   1.0000   1.0000   1.0000
     1.0000   1.0000   1.0000   1.0000   1.0000   1.0000   1.0000   1.0000
     1.0000   1.0000   1.0000   1.0000   1.0000   1.0000   1.0000   1.0000
     1.0000   1.0000   1.0000   1.0000   1.0000   1.0000   1.0000   1.0000
     1.0000   1.0000   1.0000   1.0000   1.0000   1.0000   1.0000   1.0000
     1.0000   1.0000   1.0000   1.0000   1.0000   1.0000   1.0000   1.0000
     1.0000   1.0000   1.0000   1.0000   1.0000   1.0000   1.0000   1.0000
     1.0000   1.0000   1.0000   1.0000   1.0000   1.0000   1.0000   1.0000
     1.0000   1.0000   1.0000   1.0000   1.0000   1.0000   1.0000   1.0000
     1.0000   1.0000   1.0000   1.0000   1.0000   1.0000   1.0000   1.0000
     1.0000   1.0000   1.0000   1.0000   1.0000   1.0000   1.0000   1.0000
     1.0000   1.0000   1.0000   1.0000   1.0000   1.0000   1.0000   1.0000
     1.0000   1.0000   1.0000   1.0000   1.0000   1.0000   1.0000   1.0000
     1.0000   1.0000   1.0000   1.0000   1.0000   1.0000   1.0000   1.0000
     1.0000   1.0000   1.0000   1.0000   1.0000   1.0000   1.0000   1.0000
     1.0000   1.0000   1.0000   1.0000   1.0000   1.0000   1.0000   1.0000
     1.0000   1.0000   1.0000   1.0000   1.0000   1.0000   1.0000   1.0000
     1.0000   1.0000   1.0000   1.0000   1.0000   1.0000   1.0000   1.0000
     1.0000   1.0000   1.0000   1.0000   1.0000   1.0000   1.0000   1.0000
     1.0000   1.0000   1.0000   1.0000   1.0000   1.0000   1.0000   1.0000
     1.0000   1.0000   1.0000   1.0000   1.0000   1.0000   1.0000   1.0000
     1.0000   1.0000   1.0000   1.0000   1.0000   1.0000   1.0000   1.0000
     1.0000   1.0000   1.0000   1.0000   1.0000   1.0000   1.0000   1.0000
     1.0000   1.0000   1.0000   1.0000   1.0000   1.0000   1.0000   1.0000
     1.0211   0.0000   0.0000   0.0000   0.0000   0.0000   0.0000   0.0000
     0.0000   0.0000   0.0000   0.0000   0.0000   0.0000   0.0000   0.0000
     0.0000   0.0000   0.0000   0.0000   0.0000   0.0000   0.0000   0.0000
     0.0000   0.0000   0.0000   0.0000   0.0000   0.0000   0.0000   0.0000
     0.0000   0.0000   0.0000   0.0000   0.0000   0.0000   0.0000   0.0000
     0.0000   0.0000   0.0000   0.0000   0.0000   0.0000   0.0000   0.0000
     0.0000   0.0000   0.0000   0.0000   0.0000   0.0000   0.0000   0.0000
     0.0000   0.0000   0.0000   0.0000   0.0000   0.0000   0.0000   0.0000
     0.0000   0.0000   0.0000   0.0000   0.0000   0.0000   0.0000   0.0000
     0.0000   0.0000   0.0000   0.0000   0.0000   0.0000   0.0000   0.0000
     0.0000   0.0000   0.0000   0.0000   0.0000   0.0000   0.0000   0.0000
     0.0000   0.0000   0.0000   0.0000   0.0000   0.0000   0.0000   0.0000
     0.0000   0.0000   0.0000   0.0000   0.0000   0.0000   0.0000   0.0000
     0.0000   0.0000   0.0000   0.0000   0.0000   0.0000   0.0000   0.0000
     0.0000   0.0000   0.0000   0.0000   0.0000   0.0000   0.0000   0.0000
     0.0000   0.0000   0.0000   0.0000   0.0000   0.0000   0.0000   0.0000
     0.0000   0.0000   0.0000   0.0000   0.0000   0.0000   0.0000   0.0000
     0.0000   0.0000   0.0000   0.0000   0.0000   0.0000   0.0000   0.0000
     0.0000   0.0000   0.0000   0.0000   0.0000   0.0000   0.0000   0.0000
     0.0000   0.0000   0.0000   0.0000   0.0000   0.0000   0.0000   0.0000
     0.0000   0.0000   0.0000   0.0000   0.0000   0.0000   0.0000   0.0000
     0.0000   0.0000   0.0000   0.0000   0.0000   0.0000   0.0000   0.0000
     0.0000   0.0000   0.0000   0.0000   0.0000   0.0000   0.0000   0.0000
     0.0000   0.0000   0.0000   0.0000   0.0000   0.0000   0.0000   0.0000
     0.0000   0.0000   0.0000   0.0000   0.0000   0.0000   0.0000   0.0000
     0.0000   0.0000   0.0000   0.0000   0.0000   0.0000   0.0000   0.0000
     0.0000   0.0000   0.0000   0.0000   0.0000   0.0000   0.0000   0.0000
     0.0000   0.0000   0.0000   0.0000   0.0000   0.0000   0.0000   0.0000
     0.0000   0.0000   0.0000   0.0000   0.0000   0.0000   0.0000   0.0000
     0.0000   0.0000   0.0000   0.0000   0.0000   0.0000   0.0000   0.0000
     0.0000   0.0000   0.0000   0.0000   0.0000   0.0000   0.0000   0.0000
     0.0000   0.0000   0.0000   0.0000   0.0000   0.0000   0.0000   0.0000
     0.0000   0.0000   0.0000   0.0000   0.0000   0.0000   0.0000   0.0000
     0.0000   0.0000   0.0000   0.0000   0.0000   0.0000   0.0000   0.0000
     0.0000   0.0000   0.0000   0.0000   0.0000   0.0000   0.0000   0.0000
     0.0000   0.0000   0.0000   0.0000   0.0000   0.0000   0.0000   0.0000
     0.0000   0.0000   0.0000   0.0000   0.0000   0.0000   0.0000   0.0000
     0.0000   0.0000   0.0000   0.0000   0.0000   0.0000   0.0000   0.0000
     0.0000   0.0000   0.0000   0.0000

          k = 0.0000 0.0000-0.5768 ( 59496 PWs)   bands (ev):

   -86.0891 -86.0857 -85.7771 -85.7770 -85.7764 -85.7762 -49.6022 -49.5990
   -49.4976 -49.4942 -49.4263 -49.4229 -49.3934 -49.3932 -49.3926 -49.3924
   -49.1810 -49.1803 -49.1798 -49.1791 -49.0424 -49.0417 -49.0403 -49.0396
   -42.5864 -42.5864 -42.5863 -42.5863 -42.5781 -42.5780 -42.5779 -42.5779
   -42.5626 -42.5626 -42.5624 -42.5624 -42.5587 -42.5587 -42.5585 -42.5585
   -42.4432 -42.4432 -42.4431 -42.4431 -42.4275 -42.4275 -42.4274 -42.4274
   -42.4235 -42.4235 -42.4233 -42.4233 -42.4148 -42.4148 -42.4146 -42.4146
   -42.3731 -42.3731 -42.3729 -42.3729 -42.3616 -42.3616 -42.3614 -42.3614
   -35.9426 -35.9424 -35.9419 -35.9417 -14.0892 -14.0890 -13.9537 -13.9536
   -13.8772 -13.8772 -13.8598 -13.8598 -11.5469 -11.5468 -11.4542 -11.4539
   -11.2667 -11.2664 -11.2570 -11.2568 -11.1780 -11.1780 -11.1516 -11.1516
   -11.1174 -11.1173 -11.0698 -11.0696  -4.2404  -4.2403  -4.1425  -4.1424
    -3.8190  -3.8188  -3.7598  -3.7598   0.0076   0.0080   0.2090   0.2091
     0.3449   0.3451   0.5851   0.5852   0.6672   0.6673   0.7476   0.7477
     0.8854   0.8855   1.0142   1.0142   1.3106   1.3107   1.3723   1.3723
     1.7459   1.7460   2.0527   2.0528   3.1254   3.1255   3.1813   3.1816
     3.2616   3.2616   3.3191   3.3192   3.4414   3.4415   3.4971   3.4971
     3.5390   3.5391   3.8302   3.8304   3.9412   3.9413   4.1186   4.1186
     4.2022   4.2025   4.2824   4.2825   4.5013   4.5013   4.5798   4.5798
     4.6722   4.6723   4.7577   4.7578   4.9753   4.9754   5.1551   5.1551
     5.1739   5.1739   5.3135   5.3137   5.4390   5.4391   5.4675   5.4675
     5.5527   5.5528   5.7664   5.7664   7.5758   7.5779   7.7632   7.7648
     7.8362   7.8384   7.8910   7.8913   7.9919   7.9925   8.0015   8.0016
     8.0710   8.0717   8.1383   8.1391   8.2331   8.2335   8.4829   8.4831
     8.5625   8.5630   8.6683   8.6702   8.7978   8.7987   8.8128   8.8138
     8.9928   8.9928  11.1623  11.1623  11.2033  11.2034  11.6631  11.6632
    11.7585  11.7586  11.8798  11.8800  12.1007  12.1008  12.3210  12.3212
    12.4756  12.4756  12.6547  12.6547  12.8486  12.8487  13.6658  13.6659
    13.7716  13.7718  15.0179  15.0180  15.7609  15.7610  15.9095  15.9096
    16.1510  16.1510  16.6357  16.6358  16.7377  16.7378  17.0919  17.0920
    17.3157  17.3157  17.4546  17.4547  17.5806  17.5807  17.9534  17.9535
    18.1183  18.1184  18.3239  18.3240  18.5970  18.5970  18.7270  18.7271
    18.9234  18.9235  19.0451  19.0452  19.3572  19.3573  19.7342  19.7344
    19.8333  19.8335  20.0426  20.0427  20.2800  20.2800  20.2855  20.2856
    20.5672  20.5673  20.7783  20.7784  21.0462  21.0462  21.3289  21.3290
    21.6319  21.6319  21.7414  21.7414  21.9938  21.9938  22.2230  22.2232
    22.6161  22.6162  22.7637  22.7637  23.0818  23.0820  23.3278  23.3279
    23.3856  23.3856  23.5353  23.5354  23.8590  23.8591  24.1759  24.1761
    24.4408  24.4408  24.4744  24.4745  24.8865  24.8866  25.1263  25.1264
    25.2581  25.2582  25.7401  25.7402  25.9560  25.9561  26.0113  26.0114
    26.3829  26.3830  26.5294  26.5294  26.8139  26.8141  27.1252  27.1252
    27.3284  27.3285  27.5692  27.5694  27.9414  27.9415  28.0781  28.0781
    28.3445  28.3446  28.5835  28.5835  28.7968  28.7969  28.9271  28.9271
    29.1201  29.1201  29.4555  29.4555  29.6216  29.6216  29.8798  29.8799
    30.1135  30.1135  30.4352  30.4352  30.5788  30.5788  30.9861  30.9862
    31.0465  31.0465  31.1923  31.1923  31.2789  31.2790  31.7490  31.7490
    31.8813  31.8813  31.9620  31.9621  32.0844  32.0845  32.2871  32.2872
    32.5257  32.5257  32.7579  32.7579  33.0652  33.0652  33.2897  33.2898
    33.5206  33.5206  33.6620  33.6621  33.7347  33.7348  33.9470  33.9470
    34.0292  34.0292  34.3672  34.3674  34.5421  34.5422  34.7017  34.7017
    34.8024  34.8024  34.9189  34.9190  35.3699  35.3699  35.6178  35.6178
    35.6673  35.6674  35.8052  35.8053  35.9724  35.9724  36.2517  36.2517
    36.4002  36.4002  36.6954  36.6954  36.8002  36.8003  36.9347  36.9347
    37.0809  37.0809  37.3025  37.3026  37.5354  37.5355  37.6505  37.6505
    37.8042  37.8042  37.9055  37.9055  38.2412  38.2412  38.2896  38.2897
    38.3873  38.3874  38.6181  38.6181  38.9160  38.9160  39.1091  39.1091
    39.1829  39.1830  39.3128  39.3128  39.3504  39.3505  39.4138  39.4138
    39.6332  39.6332  39.7344  39.7344  39.8843  39.8843  40.2709  40.2710
    40.3893  40.3893  40.6885  40.6885  40.7895  40.7895  40.9043  40.9043
    41.1121  41.1121  41.2912  41.2912  41.3643  41.3644  41.4179  41.4181
    41.6732  41.6732  41.8657  41.8657  42.0268  42.0269  42.2014  42.2015
    42.3586  42.3586  42.5195  42.5196  42.6875  42.6875  42.7922  42.7923
    43.0261  43.0261  43.1857  43.1858

     occupation numbers 
     1.0000   1.0000   1.0000   1.0000   1.0000   1.0000   1.0000   1.0000
     1.0000   1.0000   1.0000   1.0000   1.0000   1.0000   1.0000   1.0000
     1.0000   1.0000   1.0000   1.0000   1.0000   1.0000   1.0000   1.0000
     1.0000   1.0000   1.0000   1.0000   1.0000   1.0000   1.0000   1.0000
     1.0000   1.0000   1.0000   1.0000   1.0000   1.0000   1.0000   1.0000
     1.0000   1.0000   1.0000   1.0000   1.0000   1.0000   1.0000   1.0000
     1.0000   1.0000   1.0000   1.0000   1.0000   1.0000   1.0000   1.0000
     1.0000   1.0000   1.0000   1.0000   1.0000   1.0000   1.0000   1.0000
     1.0000   1.0000   1.0000   1.0000   1.0000   1.0000   1.0000   1.0000
     1.0000   1.0000   1.0000   1.0000   1.0000   1.0000   1.0000   1.0000
     1.0000   1.0000   1.0000   1.0000   1.0000   1.0000   1.0000   1.0000
     1.0000   1.0000   1.0000   1.0000   1.0000   1.0000   1.0000   1.0000
     1.0000   1.0000   1.0000   1.0000   1.0000   1.0000   1.0000   1.0000
     1.0000   1.0000   1.0000   1.0000   1.0000   1.0000   1.0000   1.0000
     1.0000   1.0000   1.0000   1.0000   1.0000   1.0000   1.0000   1.0000
     1.0000   1.0000   1.0000   1.0000   1.0000   1.0000   1.0000   1.0000
     1.0000   1.0000   1.0000   1.0000   1.0000   1.0000   1.0000   1.0000
     1.0000   1.0000   1.0000   1.0000   1.0000   1.0000   1.0000   1.0000
     1.0000   1.0000   1.0000   1.0000   1.0000   1.0000   1.0000   1.0000
     1.0000   1.0000   1.0000   1.0000   1.0000   1.0000   1.0000   1.0000
     1.0000   1.0000   1.0000   1.0000   1.0000   1.0000   1.0000   1.0000
     1.0000   1.0000   1.0000   1.0000   1.0000   1.0000   1.0000   1.0000
     1.0000   1.0000   1.0000   1.0000   1.0000   1.0000   1.0000   1.0000
     1.0000   1.0000   1.0000   1.0000   1.0000   1.0000   1.0000   1.0000
     0.0030   0.0025   0.0000   0.0000   0.0000   0.0000   0.0000   0.0000
     0.0000   0.0000   0.0000   0.0000   0.0000   0.0000   0.0000   0.0000
     0.0000   0.0000   0.0000   0.0000   0.0000   0.0000   0.0000   0.0000
     0.0000   0.0000   0.0000   0.0000   0.0000   0.0000   0.0000   0.0000
     0.0000   0.0000   0.0000   0.0000   0.0000   0.0000   0.0000   0.0000
     0.0000   0.0000   0.0000   0.0000   0.0000   0.0000   0.0000   0.0000
     0.0000   0.0000   0.0000   0.0000   0.0000   0.0000   0.0000   0.0000
     0.0000   0.0000   0.0000   0.0000   0.0000   0.0000   0.0000   0.0000
     0.0000   0.0000   0.0000   0.0000   0.0000   0.0000   0.0000   0.0000
     0.0000   0.0000   0.0000   0.0000   0.0000   0.0000   0.0000   0.0000
     0.0000   0.0000   0.0000   0.0000   0.0000   0.0000   0.0000   0.0000
     0.0000   0.0000   0.0000   0.0000   0.0000   0.0000   0.0000   0.0000
     0.0000   0.0000   0.0000   0.0000   0.0000   0.0000   0.0000   0.0000
     0.0000   0.0000   0.0000   0.0000   0.0000   0.0000   0.0000   0.0000
     0.0000   0.0000   0.0000   0.0000   0.0000   0.0000   0.0000   0.0000
     0.0000   0.0000   0.0000   0.0000   0.0000   0.0000   0.0000   0.0000
     0.0000   0.0000   0.0000   0.0000   0.0000   0.0000   0.0000   0.0000
     0.0000   0.0000   0.0000   0.0000   0.0000   0.0000   0.0000   0.0000
     0.0000   0.0000   0.0000   0.0000   0.0000   0.0000   0.0000   0.0000
     0.0000   0.0000   0.0000   0.0000   0.0000   0.0000   0.0000   0.0000
     0.0000   0.0000   0.0000   0.0000   0.0000   0.0000   0.0000   0.0000
     0.0000   0.0000   0.0000   0.0000   0.0000   0.0000   0.0000   0.0000
     0.0000   0.0000   0.0000   0.0000   0.0000   0.0000   0.0000   0.0000
     0.0000   0.0000   0.0000   0.0000   0.0000   0.0000   0.0000   0.0000
     0.0000   0.0000   0.0000   0.0000   0.0000   0.0000   0.0000   0.0000
     0.0000   0.0000   0.0000   0.0000   0.0000   0.0000   0.0000   0.0000
     0.0000   0.0000   0.0000   0.0000   0.0000   0.0000   0.0000   0.0000
     0.0000   0.0000   0.0000   0.0000   0.0000   0.0000   0.0000   0.0000
     0.0000   0.0000   0.0000   0.0000   0.0000   0.0000   0.0000   0.0000
     0.0000   0.0000   0.0000   0.0000   0.0000   0.0000   0.0000   0.0000
     0.0000   0.0000   0.0000   0.0000   0.0000   0.0000   0.0000   0.0000
     0.0000   0.0000   0.0000   0.0000   0.0000   0.0000   0.0000   0.0000
     0.0000   0.0000   0.0000   0.0000   0.0000   0.0000   0.0000   0.0000
     0.0000   0.0000   0.0000   0.0000   0.0000   0.0000   0.0000   0.0000
     0.0000   0.0000   0.0000   0.0000   0.0000   0.0000   0.0000   0.0000
     0.0000   0.0000   0.0000   0.0000   0.0000   0.0000   0.0000   0.0000
     0.0000   0.0000   0.0000   0.0000   0.0000   0.0000   0.0000   0.0000
     0.0000   0.0000   0.0000   0.0000   0.0000   0.0000   0.0000   0.0000
     0.0000   0.0000   0.0000   0.0000

          k = 0.0000 0.1458 0.0000 ( 59575 PWs)   bands (ev):

   -86.0891 -86.0857 -85.7771 -85.7770 -85.7764 -85.7762 -49.6022 -49.5990
   -49.4976 -49.4942 -49.4263 -49.4229 -49.3934 -49.3932 -49.3926 -49.3924
   -49.1810 -49.1803 -49.1798 -49.1791 -49.0424 -49.0417 -49.0403 -49.0396
[...]
     5.6417   5.6835   5.8503   5.8583   7.5600   7.6170   7.7470   7.7662
     7.8364   7.8619   7.9082   7.9351   7.9392   7.9754   8.0101   8.0197
     8.0305   8.0403   8.1371   8.1569   8.2282   8.2821   8.4263   8.4551
     8.5098   8.5615   8.6282   8.6926   8.7395   8.7630   8.8242   8.9032
     9.0408   9.0511  11.0895  11.2475  11.2982  11.3588  11.5350  11.5709
    11.6972  11.7530  11.8893  11.9897  12.0548  12.1328  12.2290  12.3211
    12.5174  12.6456  12.7265  12.8543  13.0247  13.2827  13.4441  13.6217
    13.7950  13.8890  14.8212  15.2022  15.2225  15.3212  15.7434  16.0097
    16.2521  16.3796  16.5443  16.6517  16.8468  16.9409  16.9643  17.0725
    17.1618  17.2210  17.4356  17.4873  17.5310  17.5812  17.6614  17.9593
    17.9838  18.0845  18.1347  18.3337  18.4474  18.5158  18.6823  18.7320
    18.9377  19.0180  19.0753  19.1387  19.2570  19.3113  19.4161  19.5298
    19.5812  19.6232  19.9755  20.0094  20.1549  20.3127  20.4172  20.4556
    20.5814  20.7137  20.8348  21.0619  21.1840  21.2354  21.5386  21.6013
    21.6717  21.7205  21.9388  22.0111  22.0765  22.1374  22.2378  22.3432
    22.4649  22.5792  22.7823  22.7869  22.9088  22.9947  23.1151  23.2415
    23.4275  23.6083  23.6871  23.7807  23.9958  24.0848  24.1031  24.2429
    24.2828  24.5475  24.6142  24.7459  24.8994  24.9376  25.0341  25.1180
    25.2075  25.2174  25.4469  25.7094  25.8530  25.9709  26.0432  26.1136
    26.2657  26.5017  26.5619  26.6663  26.7456  26.9122  26.9396  27.1231
    27.2425  27.3353  27.5515  27.6412  27.7954  27.8999  28.0498  28.1801
    28.2680  28.3804  28.4856  28.5818  28.6654  28.8047  28.9432  29.0388
    29.2062  29.2550  29.3271  29.4917  29.6538  29.8440  29.8731  29.9171
    30.1150  30.2586  30.2846  30.4025  30.5805  30.6417  30.6928  30.8038
    30.8723  31.0481  31.0772  31.0852  31.2105  31.2607  31.3449  31.5039
    31.5715  31.7325  31.8096  31.9080  32.1725  32.2279  32.2906  32.3507
    32.4825  32.4944  32.7124  32.7980  32.8554  32.9849  33.1996  33.2114
    33.3622  33.4384  33.5385  33.5570  33.7899  33.8408  33.9218  34.0148
    34.1488  34.2990  34.3464  34.4822  34.5190  34.6267  34.6793  34.7234
    34.8837  34.9138  35.1265  35.1900  35.2769  35.4032  35.5064  35.6677
    35.6853  35.7686  35.8762  35.9700  36.0515  36.0718  36.2371  36.2989
    36.3885  36.4580  36.5608  36.6167  36.6489  36.7792  36.9071  36.9913
    37.0315  37.0756  37.2127  37.3113  37.4022  37.4625  37.5640  37.6203
    37.7200  37.8780  38.0017  38.0545  38.1214  38.2212  38.2736  38.3118
    38.3774  38.4924  38.6202  38.6796  38.7527  38.7879  38.8145  38.9199
    39.0441  39.1537  39.1872  39.2216  39.3637  39.4749  39.6036  39.6795
    39.7320  39.7575  39.8786  40.0262  40.0905  40.1566  40.2131  40.3292
    40.3539  40.4838  40.5718  40.7053  40.7898  40.8992  40.9892  41.0093
    41.0638  41.1896  41.2799  41.3459  41.4153  41.4732  41.5808  41.6308
    41.7327  41.8405  41.8642  41.9455  42.0374  42.0696  42.2393  42.2633
    42.3694  42.4842  42.5124  42.5533  42.7335  42.8204  42.8371  42.9118
    42.9833  43.0227  43.0957  43.2127

     occupation numbers 
     1.0000   1.0000   1.0000   1.0000   1.0000   1.0000   1.0000   1.0000
     1.0000   1.0000   1.0000   1.0000   1.0000   1.0000   1.0000   1.0000
     1.0000   1.0000   1.0000   1.0000   1.0000   1.0000   1.0000   1.0000
     1.0000   1.0000   1.0000   1.0000   1.0000   1.0000   1.0000   1.0000
     1.0000   1.0000   1.0000   1.0000   1.0000   1.0000   1.0000   1.0000
     1.0000   1.0000   1.0000   1.0000   1.0000   1.0000   1.0000   1.0000
     1.0000   1.0000   1.0000   1.0000   1.0000   1.0000   1.0000   1.0000
     1.0000   1.0000   1.0000   1.0000   1.0000   1.0000   1.0000   1.0000
     1.0000   1.0000   1.0000   1.0000   1.0000   1.0000   1.0000   1.0000
     1.0000   1.0000   1.0000   1.0000   1.0000   1.0000   1.0000   1.0000
     1.0000   1.0000   1.0000   1.0000   1.0000   1.0000   1.0000   1.0000
     1.0000   1.0000   1.0000   1.0000   1.0000   1.0000   1.0000   1.0000
     1.0000   1.0000   1.0000   1.0000   1.0000   1.0000   1.0000   1.0000
     1.0000   1.0000   1.0000   1.0000   1.0000   1.0000   1.0000   1.0000
     1.0000   1.0000   1.0000   1.0000   1.0000   1.0000   1.0000   1.0000
     1.0000   1.0000   1.0000   1.0000   1.0000   1.0000   1.0000   1.0000
     1.0000   1.0000   1.0000   1.0000   1.0000   1.0000   1.0000   1.0000
     1.0000   1.0000   1.0000   1.0000   1.0000   1.0000   1.0000   1.0000
     1.0000   1.0000   1.0000   1.0000   1.0000   1.0000   1.0000   1.0000
     1.0000   1.0000   1.0000   1.0000   1.0000   1.0000   1.0000   1.0000
     1.0000   1.0000   1.0000   1.0000   1.0000   1.0000   1.0000   1.0000
     1.0000   1.0000   1.0000   1.0000   1.0000   1.0000   1.0000   1.0000
     1.0000   1.0000   1.0000   1.0000   1.0000   1.0000   1.0000   1.0000
     1.0000   1.0000   1.0000   1.0000   1.0000   1.0000   1.0000   1.0000
     1.0190   0.0042   0.0000   0.0000   0.0000   0.0000   0.0000   0.0000
     0.0000   0.0000   0.0000   0.0000   0.0000   0.0000   0.0000   0.0000
     0.0000   0.0000   0.0000   0.0000   0.0000   0.0000   0.0000   0.0000
     0.0000   0.0000   0.0000   0.0000   0.0000   0.0000   0.0000   0.0000
     0.0000   0.0000   0.0000   0.0000   0.0000   0.0000   0.0000   0.0000
     0.0000   0.0000   0.0000   0.0000   0.0000   0.0000   0.0000   0.0000
     0.0000   0.0000   0.0000   0.0000   0.0000   0.0000   0.0000   0.0000
     0.0000   0.0000   0.0000   0.0000   0.0000   0.0000   0.0000   0.0000
     0.0000   0.0000   0.0000   0.0000   0.0000   0.0000   0.0000   0.0000
     0.0000   0.0000   0.0000   0.0000   0.0000   0.0000   0.0000   0.0000
     0.0000   0.0000   0.0000   0.0000   0.0000   0.0000   0.0000   0.0000
     0.0000   0.0000   0.0000   0.0000   0.0000   0.0000   0.0000   0.0000
     0.0000   0.0000   0.0000   0.0000   0.0000   0.0000   0.0000   0.0000
     0.0000   0.0000   0.0000   0.0000   0.0000   0.0000   0.0000   0.0000
     0.0000   0.0000   0.0000   0.0000   0.0000   0.0000   0.0000   0.0000
     0.0000   0.0000   0.0000   0.0000   0.0000   0.0000   0.0000   0.0000
     0.0000   0.0000   0.0000   0.0000   0.0000   0.0000   0.0000   0.0000
     0.0000   0.0000   0.0000   0.0000   0.0000   0.0000   0.0000   0.0000
     0.0000   0.0000   0.0000   0.0000   0.0000   0.0000   0.0000   0.0000
     0.0000   0.0000   0.0000   0.0000   0.0000   0.0000   0.0000   0.0000
     0.0000   0.0000   0.0000   0.0000   0.0000   0.0000   0.0000   0.0000
     0.0000   0.0000   0.0000   0.0000   0.0000   0.0000   0.0000   0.0000
     0.0000   0.0000   0.0000   0.0000   0.0000   0.0000   0.0000   0.0000
     0.0000   0.0000   0.0000   0.0000   0.0000   0.0000   0.0000   0.0000
     0.0000   0.0000   0.0000   0.0000   0.0000   0.0000   0.0000   0.0000
     0.0000   0.0000   0.0000   0.0000   0.0000   0.0000   0.0000   0.0000
     0.0000   0.0000   0.0000   0.0000   0.0000   0.0000   0.0000   0.0000
     0.0000   0.0000   0.0000   0.0000   0.0000   0.0000   0.0000   0.0000
     0.0000   0.0000   0.0000   0.0000   0.0000   0.0000   0.0000   0.0000
     0.0000   0.0000   0.0000   0.0000   0.0000   0.0000   0.0000   0.0000
     0.0000   0.0000   0.0000   0.0000   0.0000   0.0000   0.0000   0.0000
     0.0000   0.0000   0.0000   0.0000   0.0000   0.0000   0.0000   0.0000
     0.0000   0.0000   0.0000   0.0000   0.0000   0.0000   0.0000   0.0000
     0.0000   0.0000   0.0000   0.0000   0.0000   0.0000   0.0000   0.0000
     0.0000   0.0000   0.0000   0.0000   0.0000   0.0000   0.0000   0.0000
     0.0000   0.0000   0.0000   0.0000   0.0000   0.0000   0.0000   0.0000
     0.0000   0.0000   0.0000   0.0000   0.0000   0.0000   0.0000   0.0000
     0.0000   0.0000   0.0000   0.0000   0.0000   0.0000   0.0000   0.0000
     0.0000   0.0000   0.0000   0.0000

          k = 0.5000 0.2916-0.1429 ( 59554 PWs)   bands (ev):

   -86.0891 -86.0857 -85.7771 -85.7770 -85.7764 -85.7762 -49.6022 -49.5990
   -49.4976 -49.4942 -49.4263 -49.4229 -49.3934 -49.3931 -49.3926 -49.3923
   -49.1810 -49.1803 -49.1798 -49.1791 -49.0424 -49.0417 -49.0403 -49.0396
   -42.5864 -42.5864 -42.5863 -42.5863 -42.5781 -42.5780 -42.5779 -42.5779
   -42.5626 -42.5626 -42.5624 -42.5624 -42.5587 -42.5587 -42.5585 -42.5585
   -42.4432 -42.4432 -42.4431 -42.4431 -42.4275 -42.4275 -42.4274 -42.4274
   -42.4235 -42.4235 -42.4233 -42.4233 -42.4148 -42.4148 -42.4146 -42.4146
   -42.3731 -42.3731 -42.3729 -42.3729 -42.3616 -42.3616 -42.3614 -42.3614
   -35.9426 -35.9424 -35.9419 -35.9417 -14.0764 -14.0224 -14.0025 -13.9752
   -13.9450 -13.9054 -13.8296 -13.8080 -11.5438 -11.4989 -11.4573 -11.3971
   -11.3061 -11.2876 -11.2478 -11.2273 -11.2043 -11.1979 -11.1837 -11.1768
   -11.1331 -11.1066 -11.0735 -11.0384  -4.2971  -4.2863  -4.0568  -4.0024
    -3.9224  -3.8391  -3.8130  -3.7282   0.0562   0.0787   0.1432   0.2029
     0.4059   0.4498   0.5433   0.5691   0.7363   0.7797   0.8362   0.8650
     0.9459   0.9646   1.0144   1.1191   1.1683   1.2326   1.3956   1.4726
     1.4899   1.5803   1.6909   1.8882   3.0196   3.0530   3.1559   3.2308
     3.2559   3.3139   3.3361   3.4008   3.4369   3.5235   3.5304   3.5835
     3.6095   3.6451   3.7556   3.7606   3.8132   3.8854   4.0232   4.1189
     4.2216   4.2386   4.3022   4.3599   4.4520   4.4991   4.5625   4.6265
     4.6648   4.7209   4.7647   4.7893   4.9721   4.9952   5.0209   5.0746
     5.1529   5.2117   5.2305   5.3085   5.3466   5.4065   5.5222   5.5781
     5.6060   5.6290   5.8845   5.9186   7.5649   7.5997   7.7569   7.7697
     7.8441   7.8639   7.9007   7.9157   7.9540   7.9778   8.0032   8.0161
     8.0306   8.0372   8.1395   8.1567   8.2297   8.2695   8.4413   8.4785
     8.5250   8.5878   8.6593   8.6945   8.7390   8.7778   8.8565   8.8740
     9.0049   9.0094  11.1349  11.2585  11.2950  11.3637  11.5169  11.5713
    11.6367  11.7014  11.8477  11.9346  12.0434  12.1265  12.2447  12.2553
    12.4976  12.5737  12.7291  12.8188  12.9488  13.1320  13.3776  13.5192
    13.9524  14.0156  15.0331  15.2378  15.3764  15.5561  15.6551  15.9300
    16.2650  16.3481  16.4883  16.7209  16.8322  16.8955  16.9477  17.0314
    17.1192  17.2668  17.3861  17.4829  17.5175  17.5945  17.7033  17.8300
    18.0324  18.1391  18.1787  18.2020  18.4037  18.4953  18.6557  18.7057
    18.7201  18.9503  19.0550  19.2944  19.3285  19.4024  19.5278  19.6050
    19.6139  19.7140  19.9544  20.0286  20.1391  20.2946  20.4202  20.4938
    20.6371  20.7308  21.0671  21.1145  21.1867  21.2190  21.4141  21.5154
    21.5959  21.6117  21.8885  21.9772  21.9914  22.1534  22.2407  22.3115
    22.4417  22.6115  22.6722  22.8202  22.8770  22.9817  23.0752  23.2360
    23.3705  23.4891  23.6958  23.8040  23.8929  23.9826  24.0574  24.2064
    24.2552  24.4803  24.5737  24.6717  24.7028  24.9150  25.1144  25.2465
    25.2898  25.4528  25.5841  25.7389  25.8223  25.9506  26.0923  26.1840
    26.4761  26.5898  26.6679  26.8235  26.9936  27.0563  27.1475  27.2256
    27.3399  27.5183  27.5993  27.6851  27.8213  27.8627  27.9443  28.1029
    28.2250  28.4357  28.4617  28.5944  28.6761  28.8442  28.9890  29.0024
    29.1122  29.2535  29.2863  29.4493  29.5512  29.7388  29.9106  29.9341
    30.0349  30.2164  30.2807  30.3687  30.5199  30.6254  30.6321  30.7047
    30.8792  31.0087  31.0758  31.1083  31.2414  31.2820  31.4051  31.5137
    31.7070  31.7750  31.8613  31.9902  32.0532  32.1810  32.2661  32.3437
    32.4976  32.5653  32.6920  32.8536  32.9221  32.9528  33.1298  33.1577
    33.2576  33.3936  33.3984  33.5403  33.6207  33.7492  33.8302  33.9542
    34.0959  34.1311  34.2345  34.4003  34.5009  34.5437  34.5969  34.7544
    34.8590  34.9769  35.0137  35.0884  35.2842  35.4211  35.4660  35.5088
    35.5723  35.6177  35.7719  35.9013  35.9693  36.0732  36.2121  36.3685
    36.4031  36.5291  36.5680  36.6146  36.7856  36.8410  36.8744  36.9059
    37.0787  37.1509  37.2612  37.3307  37.3610  37.4834  37.5873  37.6494
    37.6906  37.8119  37.8884  38.0861  38.1452  38.2399  38.3599  38.3995
    38.5276  38.5600  38.6369  38.7515  38.8614  38.9061  38.9806  39.0546
    39.0960  39.2116  39.2713  39.3183  39.3673  39.4354  39.5022  39.6547
    39.7241  39.8017  39.9483  40.0891  40.1307  40.2441  40.3209  40.4299
    40.5098  40.6017  40.6159  40.7298  40.7490  40.8309  40.8581  40.9080
    40.9719  41.0528  41.1954  41.2862  41.3558  41.5144  41.6122  41.6546
    41.7237  41.8041  41.8394  41.9337  41.9966  42.0313  42.0979  42.2964
    42.3434  42.3856  42.4458  42.4976  42.5542  42.6264  42.7409  42.8632
    43.0090  43.0349  43.0689  43.1727

     occupation numbers 
     1.0000   1.0000   1.0000   1.0000   1.0000   1.0000   1.0000   1.0000
     1.0000   1.0000   1.0000   1.0000   1.0000   1.0000   1.0000   1.0000
     1.0000   1.0000   1.0000   1.0000   1.0000   1.0000   1.0000   1.0000
     1.0000   1.0000   1.0000   1.0000   1.0000   1.0000   1.0000   1.0000
     1.0000   1.0000   1.0000   1.0000   1.0000   1.0000   1.0000   1.0000
     1.0000   1.0000   1.0000   1.0000   1.0000   1.0000   1.0000   1.0000
     1.0000   1.0000   1.0000   1.0000   1.0000   1.0000   1.0000   1.0000
     1.0000   1.0000   1.0000   1.0000   1.0000   1.0000   1.0000   1.0000
     1.0000   1.0000   1.0000   1.0000   1.0000   1.0000   1.0000   1.0000
     1.0000   1.0000   1.0000   1.0000   1.0000   1.0000   1.0000   1.0000
     1.0000   1.0000   1.0000   1.0000   1.0000   1.0000   1.0000   1.0000
     1.0000   1.0000   1.0000   1.0000   1.0000   1.0000   1.0000   1.0000
     1.0000   1.0000   1.0000   1.0000   1.0000   1.0000   1.0000   1.0000
     1.0000   1.0000   1.0000   1.0000   1.0000   1.0000   1.0000   1.0000
     1.0000   1.0000   1.0000   1.0000   1.0000   1.0000   1.0000   1.0000
     1.0000   1.0000   1.0000   1.0000   1.0000   1.0000   1.0000   1.0000
     1.0000   1.0000   1.0000   1.0000   1.0000   1.0000   1.0000   1.0000
     1.0000   1.0000   1.0000   1.0000   1.0000   1.0000   1.0000   1.0000
     1.0000   1.0000   1.0000   1.0000   1.0000   1.0000   1.0000   1.0000
     1.0000   1.0000   1.0000   1.0000   1.0000   1.0000   1.0000   1.0000
     1.0000   1.0000   1.0000   1.0000   1.0000   1.0000   1.0000   1.0000
     1.0000   1.0000   1.0000   1.0000   1.0000   1.0000   1.0000   1.0000
     1.0000   1.0000   1.0000   1.0000   1.0000   1.0000   1.0000   1.0000
     1.0000   1.0000   1.0000   1.0000   1.0000   1.0000   1.0000   1.0000
     1.0696   0.0000   0.0000   0.0000   0.0000   0.0000   0.0000   0.0000
     0.0000   0.0000   0.0000   0.0000   0.0000   0.0000   0.0000   0.0000
     0.0000   0.0000   0.0000   0.0000   0.0000   0.0000   0.0000   0.0000
     0.0000   0.0000   0.0000   0.0000   0.0000   0.0000   0.0000   0.0000
     0.0000   0.0000   0.0000   0.0000   0.0000   0.0000   0.0000   0.0000
     0.0000   0.0000   0.0000   0.0000   0.0000   0.0000   0.0000   0.0000
     0.0000   0.0000   0.0000   0.0000   0.0000   0.0000   0.0000   0.0000
     0.0000   0.0000   0.0000   0.0000   0.0000   0.0000   0.0000   0.0000
     0.0000   0.0000   0.0000   0.0000   0.0000   0.0000   0.0000   0.0000
     0.0000   0.0000   0.0000   0.0000   0.0000   0.0000   0.0000   0.0000
     0.0000   0.0000   0.0000   0.0000   0.0000   0.0000   0.0000   0.0000
     0.0000   0.0000   0.0000   0.0000   0.0000   0.0000   0.0000   0.0000
     0.0000   0.0000   0.0000   0.0000   0.0000   0.0000   0.0000   0.0000
     0.0000   0.0000   0.0000   0.0000   0.0000   0.0000   0.0000   0.0000
     0.0000   0.0000   0.0000   0.0000   0.0000   0.0000   0.0000   0.0000
     0.0000   0.0000   0.0000   0.0000   0.0000   0.0000   0.0000   0.0000
     0.0000   0.0000   0.0000   0.0000   0.0000   0.0000   0.0000   0.0000
     0.0000   0.0000   0.0000   0.0000   0.0000   0.0000   0.0000   0.0000
     0.0000   0.0000   0.0000   0.0000   0.0000   0.0000   0.0000   0.0000
     0.0000   0.0000   0.0000   0.0000   0.0000   0.0000   0.0000   0.0000
     0.0000   0.0000   0.0000   0.0000   0.0000   0.0000   0.0000   0.0000
     0.0000   0.0000   0.0000   0.0000   0.0000   0.0000   0.0000   0.0000
     0.0000   0.0000   0.0000   0.0000   0.0000   0.0000   0.0000   0.0000
     0.0000   0.0000   0.0000   0.0000   0.0000   0.0000   0.0000   0.0000
     0.0000   0.0000   0.0000   0.0000   0.0000   0.0000   0.0000   0.0000
     0.0000   0.0000   0.0000   0.0000   0.0000   0.0000   0.0000   0.0000
     0.0000   0.0000   0.0000   0.0000   0.0000   0.0000   0.0000   0.0000
     0.0000   0.0000   0.0000   0.0000   0.0000   0.0000   0.0000   0.0000
     0.0000   0.0000   0.0000   0.0000   0.0000   0.0000   0.0000   0.0000
     0.0000   0.0000   0.0000   0.0000   0.0000   0.0000   0.0000   0.0000
     0.0000   0.0000   0.0000   0.0000   0.0000   0.0000   0.0000   0.0000
     0.0000   0.0000   0.0000   0.0000   0.0000   0.0000   0.0000   0.0000
     0.0000   0.0000   0.0000   0.0000   0.0000   0.0000   0.0000   0.0000
     0.0000   0.0000   0.0000   0.0000   0.0000   0.0000   0.0000   0.0000
     0.0000   0.0000   0.0000   0.0000   0.0000   0.0000   0.0000   0.0000
     0.0000   0.0000   0.0000   0.0000   0.0000   0.0000   0.0000   0.0000
     0.0000   0.0000   0.0000   0.0000   0.0000   0.0000   0.0000   0.0000
     0.0000   0.0000   0.0000   0.0000   0.0000   0.0000   0.0000   0.0000
     0.0000   0.0000   0.0000   0.0000

     the Fermi energy is     8.5412 ev
     (compare with:     8.5415 eV, computed in scf)

     Writing all to output data dir ./out/lcso.save/
 
     init_run     :      1.70s CPU      1.81s WALL (       1 calls)
     electrons    :   1735.69s CPU   1769.70s WALL (       1 calls)

     Called by init_run:
     wfcinit      :      0.00s CPU      0.00s WALL (       1 calls)
     wfcinit:atom :      0.36s CPU      0.43s WALL (     112 calls)
     wfcinit:wfcr :     78.59s CPU     79.77s WALL (     112 calls)
     potinit      :      0.05s CPU      0.12s WALL (       1 calls)
     hinit0       :      1.41s CPU      1.44s WALL (       1 calls)

     Called by electrons:
     c_bands      :   1735.62s CPU   1769.58s WALL (       1 calls)
     v_of_rho     :      0.03s CPU      0.04s WALL (       1 calls)
     v_h          :      0.00s CPU      0.01s WALL (       1 calls)
     v_xc         :      0.02s CPU      0.04s WALL (       1 calls)

     Called by c_bands:
     init_us_2    :      0.55s CPU      0.56s WALL (     112 calls)
     init_us_2:cp :      0.55s CPU      0.56s WALL (     112 calls)
     cegterg      :   1573.03s CPU   1600.28s WALL (     166 calls)

     Called by sum_band:

     Called by *egterg:
     cdiaghg      :    659.85s CPU    665.74s WALL (    2412 calls)
     cegterg:over :    180.57s CPU    184.16s WALL (    2300 calls)
     cegterg:upda :    141.71s CPU    144.52s WALL (    2300 calls)
     cegterg:last :    206.37s CPU    215.67s WALL (     969 calls)
     cdiaghg:chol :     23.92s CPU     24.04s WALL (    2412 calls)
     cdiaghg:inve :      5.91s CPU      5.93s WALL (    2412 calls)
     cdiaghg:para :     56.48s CPU     60.67s WALL (    4824 calls)
     h_psi        :    416.39s CPU    422.50s WALL (    2578 calls)
     g_psi        :      3.05s CPU      3.07s WALL (    2300 calls)

     Called by h_psi:
     h_psi:calbec :     79.86s CPU     82.42s WALL (    2578 calls)
     vloc_psi     :    262.27s CPU    265.12s WALL (    2578 calls)
     add_vuspsi   :     69.12s CPU     69.47s WALL (    2578 calls)

     General routines
     calbec       :     79.85s CPU     82.42s WALL (    2578 calls)
     fft          :      0.42s CPU      0.45s WALL (      11 calls)
     fftw         :    233.27s CPU    235.79s WALL ( 1112466 calls)
     davcio       :      0.06s CPU      8.33s WALL (     224 calls)
 
     Parallel routines
 
     PWSCF        :  30m 9.63s CPU  32m31.34s WALL

 
   This run was terminated on:  19:53:32   9May2024            

=------------------------------------------------------------------------------=
   JOB DONE.
=------------------------------------------------------------------------------=
