
     Program PWSCF v.7.2 starts on  9May2024 at 17: 9:53 

     This program is part of the open-source Quantum ESPRESSO suite
     for quantum simulation of materials; please cite
         "P. Giannozzi et al., J. Phys.:Condens. Matter 21 395502 (2009);
         "P. Giannozzi et al., J. Phys.:Condens. Matter 29 465901 (2017);
         "P. Giannozzi et al., J. Chem. Phys. 152 154105 (2020);
          URL http://www.quantum-espresso.org", 
     in publications or presentations arising from this work. More details at
     http://www.quantum-espresso.org/quote

     Parallel version (MPI), running on    36 processors

     MPI processes distributed on     1 nodes
     235651 MiB available memory on the printing compute node when the environment starts
 
     Reading input from lcso_scf.in

     Current dimensions of program PWSCF are:
     Max number of different atomic species (ntypx) = 10
     Max number of k-points (npk) =  40000
     Max angular momentum in pseudopotentials (lmaxx) =  4
     Message from routine setup:
     using ibrav=0 with symmetry is DISCOURAGED, use correct ibrav instead
 
     R & G space division:  proc/nbgrp/npool/nimage =      36
     Subspace diagonalization in iterative solution of the eigenvalue problem:
     one sub-group per band group will be used
     custom distributed-memory algorithm (size of sub-group:  5*  5 procs)

 
     Parallelization info
     --------------------
     sticks:   dense  smooth     PW     G-vecs:    dense   smooth      PW
     Min         235     235     64                13233    13233    1878
     Max         236     236     65                13237    13237    1881
     Sum        8475    8475   2311               476443   476443   67657
 
     Using Slab Decomposition
 


     bravais-lattice index     =            0
     lattice parameter (alat)  =      15.2665  a.u.
     unit-cell volume          =    3526.2206 (a.u.)^3
     number of atoms/cell      =           42
     number of atomic types    =            4
     number of electrons       =       386.00
     number of Kohn-Sham states=          500
     kinetic-energy cutoff     =     100.0000  Ry
     charge density cutoff     =     400.0000  Ry
     scf convergence threshold =      1.0E-06
     mixing beta               =       0.2000
     number of iterations used =            8  plain     mixing
     Exchange-correlation= PBESOL
                           (   1   4  10   8   0   0   0)

     celldm(1)=  15.266530  celldm(2)=   0.000000  celldm(3)=   0.000000
     celldm(4)=   0.000000  celldm(5)=   0.000000  celldm(6)=   0.000000

     crystal axes: (cart. coord. in units of alat)
               a(1) = (   1.000000   0.000000   0.000000 )  
               a(2) = (   0.000000   1.143204   0.000000 )  
               a(3) = (  -0.418829   0.000000   0.866892 )  

     reciprocal axes: (cart. coord. in units 2 pi/alat)
               b(1) = (  1.000000  0.000000  0.483139 )  
               b(2) = (  0.000000  0.874735  0.000000 )  
               b(3) = (  0.000000  0.000000  1.153547 )  


     PseudoPot. # 1 for Co read from file:
     /projects/p31387/PP/PBEsol_NC_SR/Co.upf
     MD5 check sum: da2f8eda8ae963674925720b0359a264
     Pseudo is Norm-conserving + core correction, Zval = 17.0
     Generated using ONCVPSP code by D. R. Hamann
     Using radial grid of 1388 points,  6 beta functions with: 
                l(1) =   0
                l(2) =   0
                l(3) =   1
                l(4) =   1
                l(5) =   2
                l(6) =   2

     PseudoPot. # 2 for Li read from file:
     /projects/p31387/PP/PBEsol_NC_SR/Li.upf
     MD5 check sum: dc9f6e608df41cc7e5665a263ba47fe0
     Pseudo is Norm-conserving, Zval =  3.0
     Generated using ONCVPSP code by D. R. Hamann
     Using radial grid of 1944 points,  4 beta functions with: 
                l(1) =   0
                l(2) =   0
                l(3) =   1
                l(4) =   1

     PseudoPot. # 3 for O  read from file:
     /projects/p31387/PP/PBEsol_NC_SR/O.upf
     MD5 check sum: f226cbcd508cec715ff87a8f75a1dfba
     Pseudo is Norm-conserving + core correction, Zval =  6.0
     Generated using ONCVPSP code by D. R. Hamann
     Using radial grid of  936 points,  5 beta functions with: 
                l(1) =   0
                l(2) =   0
                l(3) =   1
                l(4) =   1
                l(5) =   2

     PseudoPot. # 4 for Se read from file:
     /projects/p31387/PP/PBEsol_NC_SR/Se.upf
     MD5 check sum: c42e2feaec75ccac7da27b7ff1240b9c
     Pseudo is Norm-conserving + core correction, Zval = 16.0
     Generated using ONCVPSP code by D. R. Hamann
     Using radial grid of 1198 points,  6 beta functions with: 
                l(1) =   0
                l(2) =   0
                l(3) =   1
                l(4) =   1
                l(5) =   2
                l(6) =   2

     atomic species   valence    mass     pseudopotential
        Co            17.00    58.93319     Co( 1.00)
        Li             3.00     6.94100     Li( 1.00)
        O              6.00    15.99940     O ( 1.00)
        Se            16.00    78.96000     Se( 1.00)

      2 Sym. Ops., with inversion, found


                                    s                        frac. trans.

      isym =  1     identity                                     

 cryst.   s( 1) = (     1          0          0      )
                  (     0          1          0      )
                  (     0          0          1      )

 cart.    s( 1) = (  1.0000000  0.0000000  0.0000000 )
                  (  0.0000000  1.0000000  0.0000000 )
                  (  0.0000000  0.0000000  1.0000000 )


      isym =  2     inversion                                    

 cryst.   s( 2) = (    -1          0          0      )
                  (     0         -1          0      )
                  (     0          0         -1      )

 cart.    s( 2) = ( -1.0000000  0.0000000  0.0000000 )
                  (  0.0000000 -1.0000000  0.0000000 )
                  (  0.0000000  0.0000000 -1.0000000 )


   Cartesian axes

     site n.     atom                  positions (alat units)
         1           Se  tau(   1) = (  -0.2147682   0.9460011   0.6386737  )
         2           Se  tau(   2) = (   0.5865245   0.3743992   0.6616637  )
         3           Se  tau(   3) = (   0.7959390   0.1972026   0.2282179  )
         4           Se  tau(   4) = (  -0.0053536   0.7688045   0.2052279  )
         5           Se  tau(   5) = (   0.0659170   0.2098922   0.5387125  )
         6           Se  tau(   6) = (   0.3058393   0.7814941   0.7616250  )
         7           Se  tau(   7) = (   0.5152538   0.9333115   0.3281792  )
         8           Se  tau(   8) = (   0.2753316   0.3617097   0.1052666  )
         9           Co  tau(   9) = (   0.5000000   0.0000000   0.0000000  )
        10           Co  tau(  10) = (   0.2905854   0.5716019   0.4334458  )
        11           Co  tau(  11) = (  -0.0727120   0.5822451   0.5860881  )
        12           Co  tau(  12) = (   0.4444683   0.0106432   0.7142493  )
        13           Co  tau(  13) = (   0.6538829   0.5609586   0.2808035  )
        14           Co  tau(  14) = (   0.1367026   1.1325605   0.1526423  )
        15           O   tau(  15) = (  -0.0354590   1.0493010   0.6607188  )
        16           O   tau(  16) = (   0.4072153   0.4776991   0.6396186  )
        17           O   tau(  17) = (   0.6166299   0.0939028   0.2061728  )
        18           O   tau(  18) = (   0.1739556   0.6655046   0.2272730  )
        19           O   tau(  19) = (  -0.1745800   0.7597732   0.7266025  )
        20           O   tau(  20) = (   0.5463363   0.1881713   0.5737349  )
        21           O   tau(  21) = (   0.7557509   0.3834305   0.1402891  )
        22           O   tau(  22) = (   0.0348345   0.9550324   0.2931567  )
        23           O   tau(  23) = (  -0.3380248   1.0304038   0.7873196  )
        24           O   tau(  24) = (   0.7097811   0.4588020   0.5130178  )
        25           O   tau(  25) = (   0.9191957   0.1127999   0.0795720  )
        26           O   tau(  26) = (  -0.1286102   0.6844018   0.3538738  )
        27           O   tau(  27) = (   0.0965834   0.4175780   0.5003872  )
        28           O   tau(  28) = (   0.2751728   0.9891799   0.7999502  )
        29           O   tau(  29) = (   0.4845874   0.7256257   0.3665044  )
        30           O   tau(  30) = (   0.3059980   0.1540238   0.0669414  )
        31           O   tau(  31) = (   0.1972582   0.1710004   0.7019135  )
        32           O   tau(  32) = (   0.1744981   0.7426023   0.5984239  )
        33           O   tau(  33) = (   0.3839126   0.9722033   0.1649781  )
        34           O   tau(  34) = (   0.4066728   0.4006015   0.2684677  )
        35           O   tau(  35) = (   0.1733956   0.1218541   0.3842670  )
        36           O   tau(  36) = (   0.6171898   0.6934560   0.0491788  )
        37           O   tau(  37) = (   0.4077752   1.0213496   0.4826246  )
        38           O   tau(  38) = (  -0.0360190   0.4497478   0.8177129  )
        39           Li  tau(  39) = (   0.3639167   0.7333652   0.0701315  )
        40           Li  tau(  40) = (   0.4266687   0.1617633   0.3633143  )
        41           Li  tau(  41) = (   0.2172541   0.4098385   0.7967601  )
        42           Li  tau(  42) = (   0.1545021   0.9814404   0.5035773  )

   Crystallographic axes

     site n.     atom                  positions (cryst. coord.)
         1           Se  tau(   1) = (  0.0938000  0.8275000  0.7367400  )
         2           Se  tau(   2) = (  0.9062000  0.3275000  0.7632600  )
         3           Se  tau(   3) = (  0.9062000  0.1725000  0.2632600  )
         4           Se  tau(   4) = (  0.0938000  0.6725000  0.2367400  )
         5           Se  tau(   5) = (  0.3261900  0.1836000  0.6214300  )
         6           Se  tau(   6) = (  0.6738100  0.6836000  0.8785700  )
         7           Se  tau(   7) = (  0.6738100  0.8164000  0.3785700  )
         8           Se  tau(   8) = (  0.3261900  0.3164000  0.1214300  )
         9           Co  tau(   9) = (  0.5000000  0.0000000  0.0000000  )
        10           Co  tau(  10) = (  0.5000000  0.5000000  0.5000000  )
        11           Co  tau(  11) = (  0.2104500  0.5093100  0.6760800  )
        12           Co  tau(  12) = (  0.7895500  0.0093100  0.8239200  )
        13           Co  tau(  13) = (  0.7895500  0.4906900  0.3239200  )
        14           Co  tau(  14) = (  0.2104500  0.9906900  0.1760800  )
        15           O   tau(  15) = (  0.2837600  0.9178600  0.7621700  )
        16           O   tau(  16) = (  0.7162400  0.4178600  0.7378300  )
        17           O   tau(  17) = (  0.7162400  0.0821400  0.2378300  )
        18           O   tau(  18) = (  0.2837600  0.5821400  0.2621700  )
        19           O   tau(  19) = (  0.1764700  0.6646000  0.8381700  )
        20           O   tau(  20) = (  0.8235300  0.1646000  0.6618300  )
        21           O   tau(  21) = (  0.8235300  0.3354000  0.1618300  )
        22           O   tau(  22) = (  0.1764700  0.8354000  0.3381700  )
        23           O   tau(  23) = (  0.0423600  0.9013300  0.9082100  )
        24           O   tau(  24) = (  0.9576400  0.4013300  0.5917900  )
        25           O   tau(  25) = (  0.9576400  0.0986700  0.0917900  )
        26           O   tau(  26) = (  0.0423600  0.5986700  0.4082100  )
        27           O   tau(  27) = (  0.3383400  0.3652700  0.5772200  )
        28           O   tau(  28) = (  0.6616600  0.8652700  0.9227800  )
        29           O   tau(  29) = (  0.6616600  0.6347300  0.4227800  )
        30           O   tau(  30) = (  0.3383400  0.1347300  0.0772200  )
        31           O   tau(  31) = (  0.5363800  0.1495800  0.8096900  )
        32           O   tau(  32) = (  0.4636200  0.6495800  0.6903100  )
        33           O   tau(  33) = (  0.4636200  0.8504200  0.1903100  )
        34           O   tau(  34) = (  0.5363800  0.3504200  0.3096900  )
        35           O   tau(  35) = (  0.3590500  0.1065900  0.4432700  )
        36           O   tau(  36) = (  0.6409500  0.6065900  0.0567300  )
        37           O   tau(  37) = (  0.6409500  0.8934100  0.5567300  )
        38           O   tau(  38) = (  0.3590500  0.3934100  0.9432700  )
        39           Li  tau(  39) = (  0.3978000  0.6415000  0.0809000  )
        40           Li  tau(  40) = (  0.6022000  0.1415000  0.4191000  )
        41           Li  tau(  41) = (  0.6022000  0.3585000  0.9191000  )
        42           Li  tau(  42) = (  0.3978000  0.8585000  0.5809000  )

     number of k points=   112  Marzari-Vanderbilt smearing, width (Ry)=  0.0010
                       cart. coord. in units 2pi/alat
        k(    1) = (   0.0000000   0.0000000   0.0000000), wk =   0.0092593
        k(    2) = (   0.0000000   0.0000000   0.1922578), wk =   0.0185185
        k(    3) = (   0.0000000   0.0000000   0.3845156), wk =   0.0185185
        k(    4) = (   0.0000000   0.0000000  -0.5767734), wk =   0.0092593
        k(    5) = (   0.0000000   0.1457891   0.0000000), wk =   0.0185185
        k(    6) = (   0.0000000   0.1457891   0.1922578), wk =   0.0185185
        k(    7) = (   0.0000000   0.1457891   0.3845156), wk =   0.0185185
        k(    8) = (   0.0000000   0.1457891  -0.5767734), wk =   0.0185185
        k(    9) = (   0.0000000   0.2915782   0.0000000), wk =   0.0185185
        k(   10) = (   0.0000000   0.2915782   0.1922578), wk =   0.0185185
        k(   11) = (   0.0000000   0.2915782   0.3845156), wk =   0.0185185
        k(   12) = (   0.0000000   0.2915782  -0.5767734), wk =   0.0185185
        k(   13) = (   0.0000000  -0.4373674   0.0000000), wk =   0.0092593
        k(   14) = (   0.0000000  -0.4373674   0.1922578), wk =   0.0185185
        k(   15) = (   0.0000000  -0.4373674   0.3845156), wk =   0.0185185
        k(   16) = (   0.0000000  -0.4373674  -0.5767734), wk =   0.0092593
        k(   17) = (   0.1666667   0.0000000   0.0805232), wk =   0.0185185
        k(   18) = (   0.1666667   0.0000000   0.2727810), wk =   0.0185185
        k(   19) = (   0.1666667   0.0000000   0.4650387), wk =   0.0185185
        k(   20) = (   0.1666667   0.0000000  -0.4962502), wk =   0.0185185
        k(   21) = (   0.1666667   0.0000000  -0.3039924), wk =   0.0185185
        k(   22) = (   0.1666667   0.0000000  -0.1117346), wk =   0.0185185
        k(   23) = (   0.1666667   0.1457891   0.0805232), wk =   0.0185185
        k(   24) = (   0.1666667   0.1457891   0.2727810), wk =   0.0185185
        k(   25) = (   0.1666667   0.1457891   0.4650387), wk =   0.0185185
        k(   26) = (   0.1666667   0.1457891  -0.4962502), wk =   0.0185185
        k(   27) = (   0.1666667   0.1457891  -0.3039924), wk =   0.0185185
        k(   28) = (   0.1666667   0.1457891  -0.1117346), wk =   0.0185185
        k(   29) = (   0.1666667   0.2915782   0.0805232), wk =   0.0185185
        k(   30) = (   0.1666667   0.2915782   0.2727810), wk =   0.0185185
        k(   31) = (   0.1666667   0.2915782   0.4650387), wk =   0.0185185
        k(   32) = (   0.1666667   0.2915782  -0.4962502), wk =   0.0185185
        k(   33) = (   0.1666667   0.2915782  -0.3039924), wk =   0.0185185
        k(   34) = (   0.1666667   0.2915782  -0.1117346), wk =   0.0185185
        k(   35) = (   0.1666667  -0.4373674   0.0805232), wk =   0.0185185
        k(   36) = (   0.1666667  -0.4373674   0.2727810), wk =   0.0185185
        k(   37) = (   0.1666667  -0.4373674   0.4650387), wk =   0.0185185
        k(   38) = (   0.1666667  -0.4373674  -0.4962502), wk =   0.0185185
        k(   39) = (   0.1666667  -0.4373674  -0.3039924), wk =   0.0185185
        k(   40) = (   0.1666667  -0.4373674  -0.1117346), wk =   0.0185185
        k(   41) = (   0.3333333   0.0000000   0.1610463), wk =   0.0185185
        k(   42) = (   0.3333333   0.0000000   0.3533041), wk =   0.0185185
        k(   43) = (   0.3333333   0.0000000   0.5455619), wk =   0.0185185
        k(   44) = (   0.3333333   0.0000000  -0.4157270), wk =   0.0185185
        k(   45) = (   0.3333333   0.0000000  -0.2234692), wk =   0.0185185
        k(   46) = (   0.3333333   0.0000000  -0.0312115), wk =   0.0185185
        k(   47) = (   0.3333333   0.1457891   0.1610463), wk =   0.0185185
        k(   48) = (   0.3333333   0.1457891   0.3533041), wk =   0.0185185
        k(   49) = (   0.3333333   0.1457891   0.5455619), wk =   0.0185185
        k(   50) = (   0.3333333   0.1457891  -0.4157270), wk =   0.0185185
        k(   51) = (   0.3333333   0.1457891  -0.2234692), wk =   0.0185185
        k(   52) = (   0.3333333   0.1457891  -0.0312115), wk =   0.0185185
        k(   53) = (   0.3333333   0.2915782   0.1610463), wk =   0.0185185
        k(   54) = (   0.3333333   0.2915782   0.3533041), wk =   0.0185185
        k(   55) = (   0.3333333   0.2915782   0.5455619), wk =   0.0185185
        k(   56) = (   0.3333333   0.2915782  -0.4157270), wk =   0.0185185
        k(   57) = (   0.3333333   0.2915782  -0.2234692), wk =   0.0185185
        k(   58) = (   0.3333333   0.2915782  -0.0312115), wk =   0.0185185
        k(   59) = (   0.3333333  -0.4373674   0.1610463), wk =   0.0185185
        k(   60) = (   0.3333333  -0.4373674   0.3533041), wk =   0.0185185
        k(   61) = (   0.3333333  -0.4373674   0.5455619), wk =   0.0185185
        k(   62) = (   0.3333333  -0.4373674  -0.4157270), wk =   0.0185185
        k(   63) = (   0.3333333  -0.4373674  -0.2234692), wk =   0.0185185
        k(   64) = (   0.3333333  -0.4373674  -0.0312115), wk =   0.0185185
        k(   65) = (  -0.5000000   0.0000000  -0.2415695), wk =   0.0092593
        k(   66) = (  -0.5000000   0.0000000  -0.0493117), wk =   0.0185185
        k(   67) = (  -0.5000000   0.0000000   0.1429461), wk =   0.0185185
        k(   68) = (  -0.5000000   0.0000000  -0.8183429), wk =   0.0092593
        k(   69) = (  -0.5000000   0.1457891  -0.2415695), wk =   0.0185185
        k(   70) = (  -0.5000000   0.1457891  -0.0493117), wk =   0.0185185
        k(   71) = (  -0.5000000   0.1457891   0.1429461), wk =   0.0185185
        k(   72) = (  -0.5000000   0.1457891  -0.8183429), wk =   0.0185185
        k(   73) = (  -0.5000000   0.2915782  -0.2415695), wk =   0.0185185
        k(   74) = (  -0.5000000   0.2915782  -0.0493117), wk =   0.0185185
        k(   75) = (  -0.5000000   0.2915782   0.1429461), wk =   0.0185185
        k(   76) = (  -0.5000000   0.2915782  -0.8183429), wk =   0.0185185
        k(   77) = (  -0.5000000  -0.4373674  -0.2415695), wk =   0.0092593
        k(   78) = (  -0.5000000  -0.4373674  -0.0493117), wk =   0.0185185
        k(   79) = (  -0.5000000  -0.4373674   0.1429461), wk =   0.0185185
        k(   80) = (  -0.5000000  -0.4373674  -0.8183429), wk =   0.0092593
        k(   81) = (   0.0000000   0.1457891  -0.1922578), wk =   0.0185185
        k(   82) = (   0.0000000   0.1457891  -0.3845156), wk =   0.0185185
        k(   83) = (   0.0000000   0.2915782  -0.1922578), wk =   0.0185185
        k(   84) = (   0.0000000   0.2915782  -0.3845156), wk =   0.0185185
        k(   85) = (  -0.1666667   0.1457891  -0.0805232), wk =   0.0185185
        k(   86) = (  -0.1666667   0.1457891  -0.2727810), wk =   0.0185185
        k(   87) = (  -0.1666667   0.1457891  -0.4650387), wk =   0.0185185
        k(   88) = (  -0.1666667   0.1457891   0.4962502), wk =   0.0185185
        k(   89) = (  -0.1666667   0.1457891   0.3039924), wk =   0.0185185
        k(   90) = (  -0.1666667   0.1457891   0.1117346), wk =   0.0185185
        k(   91) = (  -0.1666667   0.2915782  -0.0805232), wk =   0.0185185
        k(   92) = (  -0.1666667   0.2915782  -0.2727810), wk =   0.0185185
        k(   93) = (  -0.1666667   0.2915782  -0.4650387), wk =   0.0185185
        k(   94) = (  -0.1666667   0.2915782   0.4962502), wk =   0.0185185
        k(   95) = (  -0.1666667   0.2915782   0.3039924), wk =   0.0185185
        k(   96) = (  -0.1666667   0.2915782   0.1117346), wk =   0.0185185
        k(   97) = (  -0.3333333   0.1457891  -0.1610463), wk =   0.0185185
        k(   98) = (  -0.3333333   0.1457891  -0.3533041), wk =   0.0185185
        k(   99) = (  -0.3333333   0.1457891  -0.5455619), wk =   0.0185185
        k(  100) = (  -0.3333333   0.1457891   0.4157270), wk =   0.0185185
        k(  101) = (  -0.3333333   0.1457891   0.2234692), wk =   0.0185185
        k(  102) = (  -0.3333333   0.1457891   0.0312115), wk =   0.0185185
        k(  103) = (  -0.3333333   0.2915782  -0.1610463), wk =   0.0185185
        k(  104) = (  -0.3333333   0.2915782  -0.3533041), wk =   0.0185185
        k(  105) = (  -0.3333333   0.2915782  -0.5455619), wk =   0.0185185
        k(  106) = (  -0.3333333   0.2915782   0.4157270), wk =   0.0185185
        k(  107) = (  -0.3333333   0.2915782   0.2234692), wk =   0.0185185
        k(  108) = (  -0.3333333   0.2915782   0.0312115), wk =   0.0185185
        k(  109) = (   0.5000000   0.1457891   0.0493117), wk =   0.0185185
        k(  110) = (   0.5000000   0.1457891  -0.1429461), wk =   0.0185185
        k(  111) = (   0.5000000   0.2915782   0.0493117), wk =   0.0185185
        k(  112) = (   0.5000000   0.2915782  -0.1429461), wk =   0.0185185

                       cryst. coord.
        k(    1) = (   0.0000000   0.0000000   0.0000000), wk =   0.0092593
        k(    2) = (   0.0000000   0.0000000   0.1666667), wk =   0.0185185
        k(    3) = (   0.0000000   0.0000000   0.3333333), wk =   0.0185185
        k(    4) = (   0.0000000   0.0000000  -0.5000000), wk =   0.0092593
        k(    5) = (   0.0000000   0.1666667   0.0000000), wk =   0.0185185
        k(    6) = (   0.0000000   0.1666667   0.1666667), wk =   0.0185185
        k(    7) = (   0.0000000   0.1666667   0.3333333), wk =   0.0185185
        k(    8) = (   0.0000000   0.1666667  -0.5000000), wk =   0.0185185
        k(    9) = (   0.0000000   0.3333333   0.0000000), wk =   0.0185185
        k(   10) = (   0.0000000   0.3333333   0.1666667), wk =   0.0185185
        k(   11) = (   0.0000000   0.3333333   0.3333333), wk =   0.0185185
        k(   12) = (   0.0000000   0.3333333  -0.5000000), wk =   0.0185185
        k(   13) = (   0.0000000  -0.5000000   0.0000000), wk =   0.0092593
        k(   14) = (   0.0000000  -0.5000000   0.1666667), wk =   0.0185185
        k(   15) = (   0.0000000  -0.5000000   0.3333333), wk =   0.0185185
        k(   16) = (   0.0000000  -0.5000000  -0.5000000), wk =   0.0092593
        k(   17) = (   0.1666667   0.0000000   0.0000000), wk =   0.0185185
        k(   18) = (   0.1666667   0.0000000   0.1666667), wk =   0.0185185
        k(   19) = (   0.1666667   0.0000000   0.3333333), wk =   0.0185185
        k(   20) = (   0.1666667   0.0000000  -0.5000000), wk =   0.0185185
        k(   21) = (   0.1666667   0.0000000  -0.3333333), wk =   0.0185185
        k(   22) = (   0.1666667   0.0000000  -0.1666667), wk =   0.0185185
        k(   23) = (   0.1666667   0.1666667   0.0000000), wk =   0.0185185
        k(   24) = (   0.1666667   0.1666667   0.1666667), wk =   0.0185185
        k(   25) = (   0.1666667   0.1666667   0.3333333), wk =   0.0185185
        k(   26) = (   0.1666667   0.1666667  -0.5000000), wk =   0.0185185
        k(   27) = (   0.1666667   0.1666667  -0.3333333), wk =   0.0185185
        k(   28) = (   0.1666667   0.1666667  -0.1666667), wk =   0.0185185
        k(   29) = (   0.1666667   0.3333333   0.0000000), wk =   0.0185185
        k(   30) = (   0.1666667   0.3333333   0.1666667), wk =   0.0185185
        k(   31) = (   0.1666667   0.3333333   0.3333333), wk =   0.0185185
        k(   32) = (   0.1666667   0.3333333  -0.5000000), wk =   0.0185185
        k(   33) = (   0.1666667   0.3333333  -0.3333333), wk =   0.0185185
        k(   34) = (   0.1666667   0.3333333  -0.1666667), wk =   0.0185185
        k(   35) = (   0.1666667  -0.5000000   0.0000000), wk =   0.0185185
        k(   36) = (   0.1666667  -0.5000000   0.1666667), wk =   0.0185185
        k(   37) = (   0.1666667  -0.5000000   0.3333333), wk =   0.0185185
        k(   38) = (   0.1666667  -0.5000000  -0.5000000), wk =   0.0185185
        k(   39) = (   0.1666667  -0.5000000  -0.3333333), wk =   0.0185185
        k(   40) = (   0.1666667  -0.5000000  -0.1666667), wk =   0.0185185
        k(   41) = (   0.3333333   0.0000000   0.0000000), wk =   0.0185185
        k(   42) = (   0.3333333   0.0000000   0.1666667), wk =   0.0185185
        k(   43) = (   0.3333333   0.0000000   0.3333333), wk =   0.0185185
        k(   44) = (   0.3333333   0.0000000  -0.5000000), wk =   0.0185185
        k(   45) = (   0.3333333   0.0000000  -0.3333333), wk =   0.0185185
        k(   46) = (   0.3333333   0.0000000  -0.1666667), wk =   0.0185185
        k(   47) = (   0.3333333   0.1666667   0.0000000), wk =   0.0185185
        k(   48) = (   0.3333333   0.1666667   0.1666667), wk =   0.0185185
        k(   49) = (   0.3333333   0.1666667   0.3333333), wk =   0.0185185
        k(   50) = (   0.3333333   0.1666667  -0.5000000), wk =   0.0185185
        k(   51) = (   0.3333333   0.1666667  -0.3333333), wk =   0.0185185
        k(   52) = (   0.3333333   0.1666667  -0.1666667), wk =   0.0185185
        k(   53) = (   0.3333333   0.3333333   0.0000000), wk =   0.0185185
        k(   54) = (   0.3333333   0.3333333   0.1666667), wk =   0.0185185
        k(   55) = (   0.3333333   0.3333333   0.3333333), wk =   0.0185185
        k(   56) = (   0.3333333   0.3333333  -0.5000000), wk =   0.0185185
        k(   57) = (   0.3333333   0.3333333  -0.3333333), wk =   0.0185185
        k(   58) = (   0.3333333   0.3333333  -0.1666667), wk =   0.0185185
        k(   59) = (   0.3333333  -0.5000000   0.0000000), wk =   0.0185185
        k(   60) = (   0.3333333  -0.5000000   0.1666667), wk =   0.0185185
        k(   61) = (   0.3333333  -0.5000000   0.3333333), wk =   0.0185185
        k(   62) = (   0.3333333  -0.5000000  -0.5000000), wk =   0.0185185
        k(   63) = (   0.3333333  -0.5000000  -0.3333333), wk =   0.0185185
        k(   64) = (   0.3333333  -0.5000000  -0.1666667), wk =   0.0185185
        k(   65) = (  -0.5000000   0.0000000   0.0000000), wk =   0.0092593
        k(   66) = (  -0.5000000   0.0000000   0.1666667), wk =   0.0185185
        k(   67) = (  -0.5000000   0.0000000   0.3333333), wk =   0.0185185
        k(   68) = (  -0.5000000   0.0000000  -0.5000000), wk =   0.0092593
        k(   69) = (  -0.5000000   0.1666667   0.0000000), wk =   0.0185185
        k(   70) = (  -0.5000000   0.1666667   0.1666667), wk =   0.0185185
        k(   71) = (  -0.5000000   0.1666667   0.3333333), wk =   0.0185185
        k(   72) = (  -0.5000000   0.1666667  -0.5000000), wk =   0.0185185
        k(   73) = (  -0.5000000   0.3333333   0.0000000), wk =   0.0185185
        k(   74) = (  -0.5000000   0.3333333   0.1666667), wk =   0.0185185
        k(   75) = (  -0.5000000   0.3333333   0.3333333), wk =   0.0185185
        k(   76) = (  -0.5000000   0.3333333  -0.5000000), wk =   0.0185185
        k(   77) = (  -0.5000000  -0.5000000   0.0000000), wk =   0.0092593
        k(   78) = (  -0.5000000  -0.5000000   0.1666667), wk =   0.0185185
        k(   79) = (  -0.5000000  -0.5000000   0.3333333), wk =   0.0185185
        k(   80) = (  -0.5000000  -0.5000000  -0.5000000), wk =   0.0092593
        k(   81) = (   0.0000000   0.1666667  -0.1666667), wk =   0.0185185
        k(   82) = (   0.0000000   0.1666667  -0.3333333), wk =   0.0185185
        k(   83) = (   0.0000000   0.3333333  -0.1666667), wk =   0.0185185
        k(   84) = (   0.0000000   0.3333333  -0.3333333), wk =   0.0185185
        k(   85) = (  -0.1666667   0.1666667   0.0000000), wk =   0.0185185
        k(   86) = (  -0.1666667   0.1666667  -0.1666667), wk =   0.0185185
        k(   87) = (  -0.1666667   0.1666667  -0.3333333), wk =   0.0185185
        k(   88) = (  -0.1666667   0.1666667   0.5000000), wk =   0.0185185
        k(   89) = (  -0.1666667   0.1666667   0.3333333), wk =   0.0185185
        k(   90) = (  -0.1666667   0.1666667   0.1666667), wk =   0.0185185
        k(   91) = (  -0.1666667   0.3333333   0.0000000), wk =   0.0185185
        k(   92) = (  -0.1666667   0.3333333  -0.1666667), wk =   0.0185185
        k(   93) = (  -0.1666667   0.3333333  -0.3333333), wk =   0.0185185
        k(   94) = (  -0.1666667   0.3333333   0.5000000), wk =   0.0185185
        k(   95) = (  -0.1666667   0.3333333   0.3333333), wk =   0.0185185
        k(   96) = (  -0.1666667   0.3333333   0.1666667), wk =   0.0185185
        k(   97) = (  -0.3333333   0.1666667   0.0000000), wk =   0.0185185
        k(   98) = (  -0.3333333   0.1666667  -0.1666667), wk =   0.0185185
        k(   99) = (  -0.3333333   0.1666667  -0.3333333), wk =   0.0185185
        k(  100) = (  -0.3333333   0.1666667   0.5000000), wk =   0.0185185
        k(  101) = (  -0.3333333   0.1666667   0.3333333), wk =   0.0185185
        k(  102) = (  -0.3333333   0.1666667   0.1666667), wk =   0.0185185
        k(  103) = (  -0.3333333   0.3333333   0.0000000), wk =   0.0185185
        k(  104) = (  -0.3333333   0.3333333  -0.1666667), wk =   0.0185185
        k(  105) = (  -0.3333333   0.3333333  -0.3333333), wk =   0.0185185
        k(  106) = (  -0.3333333   0.3333333   0.5000000), wk =   0.0185185
        k(  107) = (  -0.3333333   0.3333333   0.3333333), wk =   0.0185185
        k(  108) = (  -0.3333333   0.3333333   0.1666667), wk =   0.0185185
        k(  109) = (   0.5000000   0.1666667  -0.1666667), wk =   0.0185185
        k(  110) = (   0.5000000   0.1666667  -0.3333333), wk =   0.0185185
        k(  111) = (   0.5000000   0.3333333  -0.1666667), wk =   0.0185185
        k(  112) = (   0.5000000   0.3333333  -0.3333333), wk =   0.0185185

     Dense  grid:   476443 G-vectors     FFT dimensions: ( 100, 120,  96)

     Dynamical RAM for                 wfc:      12.62 MB

     Dynamical RAM for     wfc (w. buffer):    1425.95 MB

     Dynamical RAM for           str. fact:       0.81 MB

     Dynamical RAM for           local pot:       0.00 MB

     Dynamical RAM for          nlocal pot:      15.04 MB

     Dynamical RAM for                qrad:       6.42 MB

     Dynamical RAM for          rho,v,vnew:       1.43 MB

     Dynamical RAM for               rhoin:       0.48 MB

     Dynamical RAM for            rho*nmix:       3.23 MB

     Dynamical RAM for           G-vectors:       0.86 MB

     Dynamical RAM for          h,s,v(r/c):       1.83 MB

     Dynamical RAM for          <psi|beta>:       4.55 MB

     Dynamical RAM for                 psi:      25.24 MB

     Dynamical RAM for                hpsi:      25.24 MB

     Dynamical RAM for      wfcinit/wfcrot:      30.96 MB

     Estimated static dynamical RAM per process >       1.42 GB

     Estimated max dynamical RAM per process >       1.48 GB

     Estimated total dynamical RAM >      53.21 GB

     Initial potential from superposition of free atoms

     starting charge     385.9787, renormalised to     386.0000
     Starting wfcs are  236 randomized atomic wfcs +  264 random wfcs

     total cpu time spent up to now is       76.7 secs

     per-process dynamical memory:  1677.1 Mb

     Self-consistent Calculation

     iteration #  1     ecut=   100.00 Ry     beta= 0.20
     Davidson diagonalization with overlap

---- Real-time Memory Report at c_bands before calling an iterative solver
          1701 MiB given to the printing process from OS
          1637 MiB allocation reported by mallinfo(arena+hblkhd)
        181039 MiB available memory on the node where the printing process lives
------------------
     c_bands:  2 eigenvalues not converged
     c_bands:  1 eigenvalues not converged
     c_bands:  1 eigenvalues not converged
     c_bands:  1 eigenvalues not converged
     c_bands:  1 eigenvalues not converged
     c_bands:  1 eigenvalues not converged
     c_bands:  1 eigenvalues not converged
     c_bands:  1 eigenvalues not converged
     c_bands:  1 eigenvalues not converged
     c_bands:  1 eigenvalues not converged
     c_bands:  1 eigenvalues not converged
     c_bands:  1 eigenvalues not converged
     c_bands:  1 eigenvalues not converged
     c_bands:  1 eigenvalues not converged
     c_bands:  1 eigenvalues not converged
     c_bands:  1 eigenvalues not converged
     c_bands:  1 eigenvalues not converged
     c_bands:  1 eigenvalues not converged
     c_bands:  1 eigenvalues not converged
     c_bands:  1 eigenvalues not converged
     c_bands:  2 eigenvalues not converged
     c_bands:  1 eigenvalues not converged
     c_bands:  1 eigenvalues not converged
     c_bands:  1 eigenvalues not converged
     c_bands:  1 eigenvalues not converged
     c_bands:  1 eigenvalues not converged
     c_bands:  1 eigenvalues not converged
     c_bands:  2 eigenvalues not converged
     c_bands:  1 eigenvalues not converged
     c_bands:  2 eigenvalues not converged
     c_bands:  1 eigenvalues not converged
     c_bands:  2 eigenvalues not converged
     c_bands:  1 eigenvalues not converged
     c_bands:  2 eigenvalues not converged
     c_bands:  1 eigenvalues not converged
     c_bands:  1 eigenvalues not converged
     c_bands:  2 eigenvalues not converged
     c_bands:  3 eigenvalues not converged
     c_bands:  1 eigenvalues not converged
     c_bands:  1 eigenvalues not converged
     c_bands:  1 eigenvalues not converged
     c_bands:  1 eigenvalues not converged
     c_bands:  1 eigenvalues not converged
     c_bands:  2 eigenvalues not converged
     c_bands:  1 eigenvalues not converged
     c_bands:  1 eigenvalues not converged
     c_bands:  1 eigenvalues not converged
     c_bands:  1 eigenvalues not converged
     c_bands:  1 eigenvalues not converged
     c_bands:  1 eigenvalues not converged
     c_bands:  3 eigenvalues not converged
     c_bands:  1 eigenvalues not converged
     c_bands:  1 eigenvalues not converged
     c_bands:  1 eigenvalues not converged
     c_bands:  1 eigenvalues not converged
     c_bands:  1 eigenvalues not converged
     c_bands:  1 eigenvalues not converged
     ethr =  5.00E-06,  avg # of iterations = 19.8

     total cpu time spent up to now is     1568.7 secs

     total energy              =   -4618.65768859 Ry
     estimated scf accuracy    <      10.13467240 Ry

     iteration #  2     ecut=   100.00 Ry     beta= 0.20
     Davidson diagonalization with overlap

---- Real-time Memory Report at c_bands before calling an iterative solver
          1749 MiB given to the printing process from OS
          1637 MiB allocation reported by mallinfo(arena+hblkhd)
        180941 MiB available memory on the node where the printing process lives
------------------
     ethr =  2.63E-03,  avg # of iterations =  2.0

     total cpu time spent up to now is     1836.0 secs

     total energy              =   -4617.80390156 Ry
     estimated scf accuracy    <      18.31434514 Ry

     iteration #  3     ecut=   100.00 Ry     beta= 0.20
     Davidson diagonalization with overlap

---- Real-time Memory Report at c_bands before calling an iterative solver
          1750 MiB given to the printing process from OS
          1637 MiB allocation reported by mallinfo(arena+hblkhd)
        180920 MiB available memory on the node where the printing process lives
------------------
     ethr =  2.63E-03,  avg # of iterations =  1.9

     total cpu time spent up to now is     2094.1 secs

     total energy              =   -4617.51342554 Ry
     estimated scf accuracy    <      62.96495361 Ry

     iteration #  4     ecut=   100.00 Ry     beta= 0.20
     Davidson diagonalization with overlap

---- Real-time Memory Report at c_bands before calling an iterative solver
          1751 MiB given to the printing process from OS
          1637 MiB allocation reported by mallinfo(arena+hblkhd)
        180905 MiB available memory on the node where the printing process lives
------------------
     ethr =  2.63E-03,  avg # of iterations =  1.1

     total cpu time spent up to now is     2321.2 secs

     total energy              =   -4619.01570364 Ry
     estimated scf accuracy    <       1.43743476 Ry

     iteration #  5     ecut=   100.00 Ry     beta= 0.20
     Davidson diagonalization with overlap

---- Real-time Memory Report at c_bands before calling an iterative solver
          1756 MiB given to the printing process from OS
          1642 MiB allocation reported by mallinfo(arena+hblkhd)
        180812 MiB available memory on the node where the printing process lives
------------------
     ethr =  3.72E-04,  avg # of iterations =  4.1

     total cpu time spent up to now is     2609.1 secs

     total energy              =   -4619.01269332 Ry
     estimated scf accuracy    <       0.46223558 Ry

     iteration #  6     ecut=   100.00 Ry     beta= 0.20
     Davidson diagonalization with overlap

---- Real-time Memory Report at c_bands before calling an iterative solver
          1756 MiB given to the printing process from OS
          1642 MiB allocation reported by mallinfo(arena+hblkhd)
        180761 MiB available memory on the node where the printing process lives
------------------
     c_bands:  1 eigenvalues not converged
     c_bands:  1 eigenvalues not converged
     c_bands:  1 eigenvalues not converged
     c_bands:  1 eigenvalues not converged
     c_bands:  2 eigenvalues not converged
     c_bands:  1 eigenvalues not converged
     c_bands:  1 eigenvalues not converged
     ethr =  1.20E-04,  avg # of iterations = 10.2

     total cpu time spent up to now is     2973.8 secs

     total energy              =   -4618.97318232 Ry
     estimated scf accuracy    <       0.21279333 Ry

     iteration #  7     ecut=   100.00 Ry     beta= 0.20
     Davidson diagonalization with overlap

---- Real-time Memory Report at c_bands before calling an iterative solver
          1759 MiB given to the printing process from OS
          1642 MiB allocation reported by mallinfo(arena+hblkhd)
        180763 MiB available memory on the node where the printing process lives
------------------
     c_bands:  1 eigenvalues not converged
     c_bands:  1 eigenvalues not converged
     c_bands:  1 eigenvalues not converged
     ethr =  5.51E-05,  avg # of iterations =  9.4

     total cpu time spent up to now is     3339.9 secs

     total energy              =   -4618.94260739 Ry
     estimated scf accuracy    <       3.89264280 Ry

     iteration #  8     ecut=   100.00 Ry     beta= 0.20
     Davidson diagonalization with overlap

---- Real-time Memory Report at c_bands before calling an iterative solver
          1761 MiB given to the printing process from OS
          1642 MiB allocation reported by mallinfo(arena+hblkhd)
        180755 MiB available memory on the node where the printing process lives
------------------
     ethr =  5.51E-05,  avg # of iterations =  2.1

     total cpu time spent up to now is     3598.9 secs

     total energy              =   -4618.97023855 Ry
     estimated scf accuracy    <       0.16927578 Ry

     iteration #  9     ecut=   100.00 Ry     beta= 0.20
     Davidson diagonalization with overlap

---- Real-time Memory Report at c_bands before calling an iterative solver
          1761 MiB given to the printing process from OS
          1642 MiB allocation reported by mallinfo(arena+hblkhd)
        180744 MiB available memory on the node where the printing process lives
------------------
     ethr =  4.39E-05,  avg # of iterations =  1.7

     total cpu time spent up to now is     3842.3 secs

     total energy              =   -4618.96402706 Ry
     estimated scf accuracy    <       0.73390250 Ry

     iteration # 10     ecut=   100.00 Ry     beta= 0.20
     Davidson diagonalization with overlap

---- Real-time Memory Report at c_bands before calling an iterative solver
          1761 MiB given to the printing process from OS
          1642 MiB allocation reported by mallinfo(arena+hblkhd)
        180736 MiB available memory on the node where the printing process lives
------------------
     ethr =  4.39E-05,  avg # of iterations =  1.0

     total cpu time spent up to now is     4066.0 secs

     total energy              =   -4618.97266053 Ry
     estimated scf accuracy    <       0.15085601 Ry

     iteration # 11     ecut=   100.00 Ry     beta= 0.20
     Davidson diagonalization with overlap

---- Real-time Memory Report at c_bands before calling an iterative solver
          1761 MiB given to the printing process from OS
          1642 MiB allocation reported by mallinfo(arena+hblkhd)
        180716 MiB available memory on the node where the printing process lives
------------------
     ethr =  3.91E-05,  avg # of iterations =  1.0

     total cpu time spent up to now is     4290.1 secs

     total energy              =   -4618.97425199 Ry
     estimated scf accuracy    <       0.00472061 Ry

     iteration # 12     ecut=   100.00 Ry     beta= 0.20
     Davidson diagonalization with overlap

---- Real-time Memory Report at c_bands before calling an iterative solver
          1762 MiB given to the printing process from OS
          1642 MiB allocation reported by mallinfo(arena+hblkhd)
        180720 MiB available memory on the node where the printing process lives
------------------
     c_bands:  1 eigenvalues not converged
     c_bands:  1 eigenvalues not converged
     c_bands:  1 eigenvalues not converged
     c_bands:  1 eigenvalues not converged
     c_bands:  1 eigenvalues not converged
     c_bands:  1 eigenvalues not converged
     c_bands:  2 eigenvalues not converged
     c_bands:  1 eigenvalues not converged
     c_bands:  1 eigenvalues not converged
     c_bands:  1 eigenvalues not converged
     c_bands:  1 eigenvalues not converged
     ethr =  1.22E-06,  avg # of iterations = 14.1

     total cpu time spent up to now is     4731.2 secs

     total energy              =   -4618.97414345 Ry
     estimated scf accuracy    <       0.00359915 Ry

     iteration # 13     ecut=   100.00 Ry     beta= 0.20
     Davidson diagonalization with overlap

---- Real-time Memory Report at c_bands before calling an iterative solver
          1762 MiB given to the printing process from OS
          1642 MiB allocation reported by mallinfo(arena+hblkhd)
        180719 MiB available memory on the node where the printing process lives
------------------
     ethr =  9.32E-07,  avg # of iterations =  1.3

     total cpu time spent up to now is     4965.0 secs

     total energy              =   -4618.97420824 Ry
     estimated scf accuracy    <       0.00061431 Ry

     iteration # 14     ecut=   100.00 Ry     beta= 0.20
     Davidson diagonalization with overlap

---- Real-time Memory Report at c_bands before calling an iterative solver
          1762 MiB given to the printing process from OS
          1642 MiB allocation reported by mallinfo(arena+hblkhd)
        180711 MiB available memory on the node where the printing process lives
------------------
     c_bands:  1 eigenvalues not converged
     c_bands:  1 eigenvalues not converged
     ethr =  1.59E-07,  avg # of iterations =  5.1

     total cpu time spent up to now is     5267.7 secs

     total energy              =   -4618.97422198 Ry
     estimated scf accuracy    <       0.00008919 Ry

     iteration # 15     ecut=   100.00 Ry     beta= 0.20
     Davidson diagonalization with overlap

---- Real-time Memory Report at c_bands before calling an iterative solver
          1762 MiB given to the printing process from OS
          1642 MiB allocation reported by mallinfo(arena+hblkhd)
        180713 MiB available memory on the node where the printing process lives
------------------
     c_bands:  1 eigenvalues not converged
     c_bands:  1 eigenvalues not converged
     c_bands:  1 eigenvalues not converged
     c_bands:  1 eigenvalues not converged
     ethr =  2.31E-08,  avg # of iterations = 11.4

     total cpu time spent up to now is     5668.8 secs

     total energy              =   -4618.97422154 Ry
     estimated scf accuracy    <       0.00006012 Ry

     iteration # 16     ecut=   100.00 Ry     beta= 0.20
     Davidson diagonalization with overlap

---- Real-time Memory Report at c_bands before calling an iterative solver
          1763 MiB given to the printing process from OS
          1642 MiB allocation reported by mallinfo(arena+hblkhd)
        180709 MiB available memory on the node where the printing process lives
------------------
     ethr =  1.56E-08,  avg # of iterations =  1.8

     total cpu time spent up to now is     5919.3 secs

     total energy              =   -4618.97422223 Ry
     estimated scf accuracy    <       0.00000158 Ry

     iteration # 17     ecut=   100.00 Ry     beta= 0.20
     Davidson diagonalization with overlap

---- Real-time Memory Report at c_bands before calling an iterative solver
          1763 MiB given to the printing process from OS
          1642 MiB allocation reported by mallinfo(arena+hblkhd)
        180711 MiB available memory on the node where the printing process lives
------------------
     c_bands:  1 eigenvalues not converged
     c_bands:  1 eigenvalues not converged
     ethr =  4.08E-10,  avg # of iterations = 11.7

     total cpu time spent up to now is     6469.7 secs

     End of self-consistent calculation

          k = 0.0000 0.0000 0.0000 ( 59589 PWs)   bands (ev):

   -86.0786 -86.0786 -85.7818 -85.7818 -85.7816 -85.7816 -49.5921 -49.5921
   -49.4876 -49.4875 -49.4161 -49.4161 -49.3976 -49.3976 -49.3974 -49.3974
   -49.1855 -49.1855 -49.1843 -49.1843 -49.0471 -49.0471 -49.0450 -49.0450
   -42.5859 -42.5859 -42.5858 -42.5858 -42.5775 -42.5775 -42.5775 -42.5775
   -42.5625 -42.5625 -42.5625 -42.5625 -42.5587 -42.5587 -42.5586 -42.5586
   -42.4427 -42.4427 -42.4427 -42.4427 -42.4270 -42.4270 -42.4270 -42.4270
   -42.4235 -42.4235 -42.4235 -42.4235 -42.4148 -42.4148 -42.4148 -42.4148
   -42.3726 -42.3726 -42.3726 -42.3726 -42.3615 -42.3615 -42.3615 -42.3615
   -35.9432 -35.9431 -35.9425 -35.9424 -14.2343 -14.0038 -13.9406 -13.9333
   -13.9261 -13.8898 -13.8020 -13.8012 -11.6338 -11.4613 -11.4151 -11.3853
   -11.3841 -11.2650 -11.2625 -11.2389 -11.2269 -11.1986 -11.1774 -11.1528
   -11.1400 -11.1382 -11.0618 -10.9771  -4.3736  -4.2028  -4.1689  -3.9928
    -3.9458  -3.8815  -3.7383  -3.6125  -0.0858   0.1175   0.2648   0.3629
     0.4257   0.4314   0.5593   0.5970   0.5978   0.7574   0.8188   0.9355
     0.9943   1.0025   1.0362   1.0461   1.2253   1.2526   1.3786   1.4228
     1.4611   1.6746   1.6866   1.8982   2.8989   2.9869   3.0826   3.1849
     3.2019   3.2074   3.2204   3.3399   3.3827   3.4938   3.5013   3.6090
     3.6679   3.8019   3.8093   3.8772   3.8893   3.9140   3.9992   4.0633
     4.1055   4.1764   4.2687   4.3121   4.3341   4.3588   4.6726   4.6812
     4.7517   4.7604   4.7687   4.8503   4.8938   4.9638   5.1579   5.2070
     5.2441   5.2801   5.2887   5.3334   5.3842   5.3893   5.4003   5.4690
     5.4873   5.6758   5.7443   6.1498   7.5269   7.6420   7.7529   7.7737
     7.8113   7.8402   7.8964   7.9109   7.9478   7.9850   8.0007   8.0073
     8.0300   8.0959   8.1135   8.1490   8.1834   8.2716   8.3194   8.4764
     8.4776   8.5302   8.6446   8.7219   8.7426   8.9029   8.9272   8.9480
     8.9533   9.0750  11.0212  11.2768  11.3138  11.3782  11.4561  11.5151
    11.7387  11.8555  11.8805  11.9753  12.0754  12.0911  12.1039  12.4282
    12.4369  12.4864  12.6248  12.9840  13.1106  13.3002  13.6241  13.6854
    13.8899  13.8973  14.0955  15.1376  15.5841  15.8573  15.8685  15.8752
    16.0774  16.4355  16.4843  16.6702  16.7007  16.7836  16.8070  16.9028
    16.9280  17.2603  17.3281  17.3745  17.7577  17.8598  17.9118  17.9495
    18.0792  18.1040  18.1472  18.3464  18.3906  18.4528  18.5888  18.7831
    18.9508  19.1109  19.2055  19.3559  19.4391  19.5383  19.6376  19.6996
    19.7333  19.7431  19.7470  20.0210  20.1787  20.3195  20.4630  20.5068
    20.5267  20.6634  20.8930  21.0604  21.1656  21.1986  21.3205  21.3286
    21.3529  21.6173  21.6912  21.8061  21.8836  21.9897  22.1459  22.2354
    22.3188  22.6059  22.6347  22.6789  22.9299  22.9793  23.0886  23.3993
    23.4417  23.6495  23.6744  23.7814  23.8286  23.9808  24.2099  24.3327
    24.3511  24.4794  24.6828  24.7132  25.0865  25.0886  25.1331  25.2621
    25.3417  25.7247  25.7249  25.7821  25.8662  25.8842  25.9460  26.0006
    26.2002  26.4158  26.5086  26.6157  26.6187  26.7298  26.7536  27.1880
    27.3540  27.3923  27.4330  27.4893  27.6814  27.7193  27.7525  28.0708
    28.0969  28.4025  28.5847  28.6241  28.6766  28.7928  28.7965  28.9331
    29.0656  29.1276  29.3337  29.4153  29.5297  29.5714  29.7953  29.9514
    30.2099  30.3401  30.3642  30.5692  30.6006  30.8069  30.8919  30.9832
    31.1545  31.1623  31.1723  31.3483  31.6057  31.6380  31.7171  31.7317
    31.8088  31.8445  32.0197  32.0601  32.1322  32.1942  32.2485  32.2560
    32.3525  32.4975  32.6583  32.7708  32.8017  33.0213  33.1349  33.3921
    33.4708  33.5358  33.5695  33.6126  33.6842  33.8840  33.9352  34.0699
    34.1526  34.1715  34.2170  34.3439  34.5594  34.5971  34.6462  34.6638
    34.7804  34.9150  35.0135  35.0553  35.2125  35.3623  35.4749  35.6342
    35.6650  35.6687  35.9516  35.9770  35.9943  36.0306  36.3375  36.3519
    36.3831  36.4230  36.5309  36.7008  36.7660  36.8282  36.8337  36.9370
    37.0150  37.1859  37.2001  37.2797  37.2908  37.6084  37.6292  37.7008
    37.8333  37.8365  38.0425  38.1413  38.1681  38.2874  38.2914  38.3024
    38.3721  38.3869  38.4466  38.4702  38.7304  38.8355  38.8471  38.9223
    39.1677  39.2044  39.3025  39.4459  39.4863  39.5258  39.5373  39.7097
    39.8893  39.9248  39.9505  40.0564  40.1513  40.1874  40.2171  40.4870
    40.4912  40.5191  40.5555  40.6704  40.7080  40.7189  40.7340  40.8317
    40.9108  41.0160  41.0700  41.1034  41.2518  41.3028  41.4613  41.5455
    41.5719  41.6875  41.7374  41.7862  41.9801  42.0074  42.1276  42.1934
    42.3423  42.4016  42.5381  42.5490  42.5600  42.6931  42.7449  42.8824
    42.9914  42.9941  43.1628  43.1739

     occupation numbers 
     1.0000   1.0000   1.0000   1.0000   1.0000   1.0000   1.0000   1.0000
     1.0000   1.0000   1.0000   1.0000   1.0000   1.0000   1.0000   1.0000
     1.0000   1.0000   1.0000   1.0000   1.0000   1.0000   1.0000   1.0000
     1.0000   1.0000   1.0000   1.0000   1.0000   1.0000   1.0000   1.0000
     1.0000   1.0000   1.0000   1.0000   1.0000   1.0000   1.0000   1.0000
     1.0000   1.0000   1.0000   1.0000   1.0000   1.0000   1.0000   1.0000
     1.0000   1.0000   1.0000   1.0000   1.0000   1.0000   1.0000   1.0000
     1.0000   1.0000   1.0000   1.0000   1.0000   1.0000   1.0000   1.0000
     1.0000   1.0000   1.0000   1.0000   1.0000   1.0000   1.0000   1.0000
     1.0000   1.0000   1.0000   1.0000   1.0000   1.0000   1.0000   1.0000
     1.0000   1.0000   1.0000   1.0000   1.0000   1.0000   1.0000   1.0000
     1.0000   1.0000   1.0000   1.0000   1.0000   1.0000   1.0000   1.0000
     1.0000   1.0000   1.0000   1.0000   1.0000   1.0000   1.0000   1.0000
     1.0000   1.0000   1.0000   1.0000   1.0000   1.0000   1.0000   1.0000
     1.0000   1.0000   1.0000   1.0000   1.0000   1.0000   1.0000   1.0000
     1.0000   1.0000   1.0000   1.0000   1.0000   1.0000   1.0000   1.0000
     1.0000   1.0000   1.0000   1.0000   1.0000   1.0000   1.0000   1.0000
     1.0000   1.0000   1.0000   1.0000   1.0000   1.0000   1.0000   1.0000
     1.0000   1.0000   1.0000   1.0000   1.0000   1.0000   1.0000   1.0000
     1.0000   1.0000   1.0000   1.0000   1.0000   1.0000   1.0000   1.0000
     1.0000   1.0000   1.0000   1.0000   1.0000   1.0000   1.0000   1.0000
     1.0000   1.0000   1.0000   1.0000   1.0000   1.0000   1.0000   1.0000
     1.0000   1.0000   1.0000   1.0000   1.0000   1.0000   1.0000   1.0000
     1.0000   1.0000   1.0000   1.0000   1.0000   1.0000   1.0000   1.0000
     1.0000   0.9629   0.0000   0.0000   0.0000   0.0000   0.0000   0.0000
     0.0000   0.0000   0.0000   0.0000   0.0000   0.0000   0.0000   0.0000
     0.0000   0.0000   0.0000   0.0000   0.0000   0.0000   0.0000   0.0000
     0.0000   0.0000   0.0000   0.0000   0.0000   0.0000   0.0000   0.0000
     0.0000   0.0000   0.0000   0.0000   0.0000   0.0000   0.0000   0.0000
     0.0000   0.0000   0.0000   0.0000   0.0000   0.0000   0.0000   0.0000
     0.0000   0.0000   0.0000   0.0000   0.0000   0.0000   0.0000   0.0000
     0.0000   0.0000   0.0000   0.0000   0.0000   0.0000   0.0000   0.0000
     0.0000   0.0000   0.0000   0.0000   0.0000   0.0000   0.0000   0.0000
     0.0000   0.0000   0.0000   0.0000   0.0000   0.0000   0.0000   0.0000
     0.0000   0.0000   0.0000   0.0000   0.0000   0.0000   0.0000   0.0000
     0.0000   0.0000   0.0000   0.0000   0.0000   0.0000   0.0000   0.0000
     0.0000   0.0000   0.0000   0.0000   0.0000   0.0000   0.0000   0.0000
     0.0000   0.0000   0.0000   0.0000   0.0000   0.0000   0.0000   0.0000
     0.0000   0.0000   0.0000   0.0000   0.0000   0.0000   0.0000   0.0000
     0.0000   0.0000   0.0000   0.0000   0.0000   0.0000   0.0000   0.0000
     0.0000   0.0000   0.0000   0.0000   0.0000   0.0000   0.0000   0.0000
     0.0000   0.0000   0.0000   0.0000   0.0000   0.0000   0.0000   0.0000
     0.0000   0.0000   0.0000   0.0000   0.0000   0.0000   0.0000   0.0000
     0.0000   0.0000   0.0000   0.0000   0.0000   0.0000   0.0000   0.0000
     0.0000   0.0000   0.0000   0.0000   0.0000   0.0000   0.0000   0.0000
     0.0000   0.0000   0.0000   0.0000   0.0000   0.0000   0.0000   0.0000
     0.0000   0.0000   0.0000   0.0000   0.0000   0.0000   0.0000   0.0000
     0.0000   0.0000   0.0000   0.0000   0.0000   0.0000   0.0000   0.0000
     0.0000   0.0000   0.0000   0.0000   0.0000   0.0000   0.0000   0.0000
     0.0000   0.0000   0.0000   0.0000   0.0000   0.0000   0.0000   0.0000
     0.0000   0.0000   0.0000   0.0000   0.0000   0.0000   0.0000   0.0000
     0.0000   0.0000   0.0000   0.0000   0.0000   0.0000   0.0000   0.0000
     0.0000   0.0000   0.0000   0.0000   0.0000   0.0000   0.0000   0.0000
     0.0000   0.0000   0.0000   0.0000   0.0000   0.0000   0.0000   0.0000
     0.0000   0.0000   0.0000   0.0000   0.0000   0.0000   0.0000   0.0000
     0.0000   0.0000   0.0000   0.0000   0.0000   0.0000   0.0000   0.0000
     0.0000   0.0000   0.0000   0.0000   0.0000   0.0000   0.0000   0.0000
     0.0000   0.0000   0.0000   0.0000   0.0000   0.0000   0.0000   0.0000
     0.0000   0.0000   0.0000   0.0000   0.0000   0.0000   0.0000   0.0000
     0.0000   0.0000   0.0000   0.0000   0.0000   0.0000   0.0000   0.0000
     0.0000   0.0000   0.0000   0.0000   0.0000   0.0000   0.0000   0.0000
     0.0000   0.0000   0.0000   0.0000   0.0000   0.0000   0.0000   0.0000
     0.0000   0.0000   0.0000   0.0000

          k = 0.0000 0.0000 0.1923 ( 59574 PWs)   bands (ev):

   -86.0786 -86.0786 -85.7818 -85.7818 -85.7816 -85.7816 -49.5921 -49.5921
   -49.4876 -49.4875 -49.4161 -49.4161 -49.3976 -49.3976 -49.3974 -49.3974
   -49.1855 -49.1855 -49.1843 -49.1843 -49.0471 -49.0471 -49.0450 -49.0450
   -42.5859 -42.5859 -42.5858 -42.5858 -42.5775 -42.5775 -42.5775 -42.5775
   -42.5625 -42.5625 -42.5625 -42.5625 -42.5587 -42.5587 -42.5586 -42.5586
   -42.4427 -42.4427 -42.4427 -42.4427 -42.4270 -42.4270 -42.4270 -42.4270
   -42.4235 -42.4235 -42.4235 -42.4235 -42.4148 -42.4148 -42.4148 -42.4148
   -42.3726 -42.3726 -42.3726 -42.3726 -42.3615 -42.3615 -42.3615 -42.3615
   -35.9432 -35.9431 -35.9425 -35.9424 -14.2156 -13.9954 -13.9540 -13.9338
   -13.9289 -13.8862 -13.8172 -13.8068 -11.6252 -11.4640 -11.4286 -11.4086
   -11.3606 -11.2669 -11.2615 -11.2274 -11.2210 -11.1916 -11.1729 -11.1508
   -11.1418 -11.1307 -11.0669 -10.9906  -4.3538  -4.2105  -4.1563  -4.0034
    -3.9713  -3.8428  -3.7470  -3.6325  -0.0660   0.0890   0.2462   0.3665
     0.3776   0.4306   0.4602   0.5943   0.6578   0.7443   0.8060   0.9105
     0.9123   0.9540   1.0588   1.1311   1.2102   1.2365   1.4090   1.4374
     1.4985   1.6745   1.7658   1.9418   2.9520   3.0083   3.1118   3.2092
     3.2103   3.2460   3.2480   3.3525   3.3526   3.4561   3.4911   3.5933
     3.6706   3.7065   3.8314   3.8774   3.8913   3.9098   4.0632   4.0731
     4.1656   4.1727   4.2442   4.3331   4.3743   4.3896   4.6077   4.6219
     4.6766   4.7621   4.7728   4.8769   4.9645   4.9880   5.0975   5.1802
     5.1993   5.2472   5.3255   5.3258   5.3708   5.4082   5.4654   5.4924
     5.4944   5.6423   5.7101   6.0821   7.5393   7.6340   7.7582   7.7854
     7.8116   7.8298   7.8977   7.9089   7.9575   7.9898   7.9907   8.0056
     8.0449   8.0896   8.1202   8.1491   8.1897   8.2706   8.3515   8.4547
     8.4870   8.5696   8.6475   8.7416   8.7455   8.8658   8.8685   8.9400
     8.9430   9.0655  11.0303  11.2499  11.3120  11.4224  11.4280  11.5400
    11.7136  11.8516  11.8886  11.9721  12.0439  12.0907  12.1678  12.3771
    12.4373  12.4735  12.6569  12.9197  13.0839  13.1538  13.5536  13.7424
    13.8726  13.9075  14.2116  15.2385  15.5534  15.7481  15.8127  16.0979
    16.1798  16.4578  16.5133  16.5520  16.5669  16.7368  16.7692  17.0946
    17.1048  17.2493  17.3597  17.4219  17.6424  17.8618  17.8729  17.9636
    18.0422  18.0882  18.1241  18.4108  18.4474  18.5160  18.6443  18.7988
    18.9234  19.0911  19.1346  19.2575  19.4322  19.4893  19.6144  19.6980
    19.7907  19.8040  19.9178  20.0014  20.0862  20.1555  20.4831  20.5007
    20.6917  20.7241  20.7974  20.8604  21.1566  21.1736  21.2650  21.3704
    21.4537  21.6627  21.6771  21.7599  21.9258  22.0288  22.1956  22.2869
    22.4306  22.4726  22.6952  22.8643  22.9338  23.0006  23.1278  23.2377
    23.4394  23.4754  23.5849  23.6876  23.8167  24.0815  24.1053  24.1561
    24.1725  24.6411  24.6945  24.8515  24.9942  25.1034  25.3161  25.3371
    25.3420  25.5416  25.6386  25.7890  25.8301  25.9565  26.0318  26.0689
    26.2084  26.2632  26.3650  26.4506  26.7556  26.8942  26.9327  27.1085
    27.2720  27.3259  27.4116  27.4543  27.6277  27.9720  27.9913  27.9957
    28.1896  28.3955  28.5520  28.6134  28.6383  28.8810  28.9102  28.9535
    29.0575  29.1784  29.4045  29.4248  29.5688  29.6505  29.8775  29.9331
    30.0108  30.2449  30.3237  30.4404  30.6318  30.6457  30.8284  30.9440
    30.9903  31.1021  31.1054  31.1897  31.3696  31.6091  31.6517  31.7302
    31.7496  31.9179  32.0416  32.1793  32.2521  32.3157  32.3598  32.3767
    32.5852  32.6756  32.7320  32.8814  32.9295  33.0085  33.1011  33.3220
    33.4281  33.4961  33.7032  33.7172  33.7926  33.8832  33.9081  33.9358
    34.1423  34.1878  34.2209  34.2881  34.4797  34.5867  34.6463  34.7192
    34.7715  34.9342  35.0298  35.1097  35.1992  35.2562  35.4013  35.4884
    35.5090  35.5332  35.7246  35.9051  36.0099  36.0723  36.2083  36.3363
    36.4038  36.5432  36.6128  36.6693  36.7378  36.8468  37.0166  37.1217
    37.2463  37.2916  37.3008  37.3272  37.4158  37.4340  37.5107  37.5827
    37.7731  37.8191  37.9497  38.0695  38.1034  38.1518  38.2031  38.2258
    38.3162  38.4057  38.4260  38.6016  38.7818  38.7917  38.8082  39.0238
    39.0865  39.1078  39.2488  39.2588  39.3865  39.5486  39.6389  39.6465
    39.7931  39.8818  39.9746  40.0193  40.0563  40.1828  40.2245  40.2750
    40.3229  40.4537  40.5701  40.6695  40.7120  40.7973  40.8109  41.0340
    41.0501  41.1136  41.1599  41.2265  41.3293  41.3958  41.4625  41.5687
    41.7446  41.7625  41.8152  41.9372  41.9941  42.1859  42.3262  42.3415
    42.3850  42.4061  42.5038  42.5728  42.6470  42.6551  42.6808  42.7228
    43.0185  43.0673  43.1492  43.2146

     occupation numbers 
     1.0000   1.0000   1.0000   1.0000   1.0000   1.0000   1.0000   1.0000
     1.0000   1.0000   1.0000   1.0000   1.0000   1.0000   1.0000   1.0000
     1.0000   1.0000   1.0000   1.0000   1.0000   1.0000   1.0000   1.0000
     1.0000   1.0000   1.0000   1.0000   1.0000   1.0000   1.0000   1.0000
     1.0000   1.0000   1.0000   1.0000   1.0000   1.0000   1.0000   1.0000
     1.0000   1.0000   1.0000   1.0000   1.0000   1.0000   1.0000   1.0000
     1.0000   1.0000   1.0000   1.0000   1.0000   1.0000   1.0000   1.0000
     1.0000   1.0000   1.0000   1.0000   1.0000   1.0000   1.0000   1.0000
     1.0000   1.0000   1.0000   1.0000   1.0000   1.0000   1.0000   1.0000
     1.0000   1.0000   1.0000   1.0000   1.0000   1.0000   1.0000   1.0000
     1.0000   1.0000   1.0000   1.0000   1.0000   1.0000   1.0000   1.0000
     1.0000   1.0000   1.0000   1.0000   1.0000   1.0000   1.0000   1.0000
     1.0000   1.0000   1.0000   1.0000   1.0000   1.0000   1.0000   1.0000
     1.0000   1.0000   1.0000   1.0000   1.0000   1.0000   1.0000   1.0000
     1.0000   1.0000   1.0000   1.0000   1.0000   1.0000   1.0000   1.0000
     1.0000   1.0000   1.0000   1.0000   1.0000   1.0000   1.0000   1.0000
     1.0000   1.0000   1.0000   1.0000   1.0000   1.0000   1.0000   1.0000
     1.0000   1.0000   1.0000   1.0000   1.0000   1.0000   1.0000   1.0000
     1.0000   1.0000   1.0000   1.0000   1.0000   1.0000   1.0000   1.0000
     1.0000   1.0000   1.0000   1.0000   1.0000   1.0000   1.0000   1.0000
     1.0000   1.0000   1.0000   1.0000   1.0000   1.0000   1.0000   1.0000
     1.0000   1.0000   1.0000   1.0000   1.0000   1.0000   1.0000   1.0000
     1.0000   1.0000   1.0000   1.0000   1.0000   1.0000   1.0000   1.0000
     1.0000   1.0000   1.0000   1.0000   1.0000   1.0000   1.0000   1.0000
     1.0000   0.0002   0.0000   0.0000   0.0000   0.0000   0.0000   0.0000
     0.0000   0.0000   0.0000   0.0000   0.0000   0.0000   0.0000   0.0000
     0.0000   0.0000   0.0000   0.0000   0.0000   0.0000   0.0000   0.0000
     0.0000   0.0000   0.0000   0.0000   0.0000   0.0000   0.0000   0.0000
     0.0000   0.0000   0.0000   0.0000   0.0000   0.0000   0.0000   0.0000
     0.0000   0.0000   0.0000   0.0000   0.0000   0.0000   0.0000   0.0000
     0.0000   0.0000   0.0000   0.0000   0.0000   0.0000   0.0000   0.0000
     0.0000   0.0000   0.0000   0.0000   0.0000   0.0000   0.0000   0.0000
     0.0000   0.0000   0.0000   0.0000   0.0000   0.0000   0.0000   0.0000
     0.0000   0.0000   0.0000   0.0000   0.0000   0.0000   0.0000   0.0000
     0.0000   0.0000   0.0000   0.0000   0.0000   0.0000   0.0000   0.0000
     0.0000   0.0000   0.0000   0.0000   0.0000   0.0000   0.0000   0.0000
     0.0000   0.0000   0.0000   0.0000   0.0000   0.0000   0.0000   0.0000
     0.0000   0.0000   0.0000   0.0000   0.0000   0.0000   0.0000   0.0000
     0.0000   0.0000   0.0000   0.0000   0.0000   0.0000   0.0000   0.0000
     0.0000   0.0000   0.0000   0.0000   0.0000   0.0000   0.0000   0.0000
     0.0000   0.0000   0.0000   0.0000   0.0000   0.0000   0.0000   0.0000
     0.0000   0.0000   0.0000   0.0000   0.0000   0.0000   0.0000   0.0000
     0.0000   0.0000   0.0000   0.0000   0.0000   0.0000   0.0000   0.0000
     0.0000   0.0000   0.0000   0.0000   0.0000   0.0000   0.0000   0.0000
     0.0000   0.0000   0.0000   0.0000   0.0000   0.0000   0.0000   0.0000
     0.0000   0.0000   0.0000   0.0000   0.0000   0.0000   0.0000   0.0000
     0.0000   0.0000   0.0000   0.0000   0.0000   0.0000   0.0000   0.0000
     0.0000   0.0000   0.0000   0.0000   0.0000   0.0000   0.0000   0.0000
     0.0000   0.0000   0.0000   0.0000   0.0000   0.0000   0.0000   0.0000
     0.0000   0.0000   0.0000   0.0000   0.0000   0.0000   0.0000   0.0000
     0.0000   0.0000   0.0000   0.0000   0.0000   0.0000   0.0000   0.0000
     0.0000   0.0000   0.0000   0.0000   0.0000   0.0000   0.0000   0.0000
     0.0000   0.0000   0.0000   0.0000   0.0000   0.0000   0.0000   0.0000
     0.0000   0.0000   0.0000   0.0000   0.0000   0.0000   0.0000   0.0000
     0.0000   0.0000   0.0000   0.0000   0.0000   0.0000   0.0000   0.0000
     0.0000   0.0000   0.0000   0.0000   0.0000   0.0000   0.0000   0.0000
     0.0000   0.0000   0.0000   0.0000   0.0000   0.0000   0.0000   0.0000
     0.0000   0.0000   0.0000   0.0000   0.0000   0.0000   0.0000   0.0000
     0.0000   0.0000   0.0000   0.0000   0.0000   0.0000   0.0000   0.0000
     0.0000   0.0000   0.0000   0.0000   0.0000   0.0000   0.0000   0.0000
     0.0000   0.0000   0.0000   0.0000   0.0000   0.0000   0.0000   0.0000
     0.0000   0.0000   0.0000   0.0000   0.0000   0.0000   0.0000   0.0000
     0.0000   0.0000   0.0000   0.0000

          k = 0.0000 0.0000 0.3845 ( 59517 PWs)   bands (ev):

   -86.0786 -86.0786 -85.7818 -85.7818 -85.7816 -85.7816 -49.5921 -49.5921
   -49.4876 -49.4875 -49.4161 -49.4161 -49.3976 -49.3976 -49.3974 -49.3974
   -49.1855 -49.1855 -49.1843 -49.1843 -49.0471 -49.0471 -49.0450 -49.0450
   -42.5859 -42.5859 -42.5858 -42.5858 -42.5775 -42.5775 -42.5775 -42.5775
   -42.5625 -42.5625 -42.5625 -42.5625 -42.5587 -42.5586 -42.5586 -42.5586
   -42.4427 -42.4427 -42.4427 -42.4427 -42.4270 -42.4270 -42.4270 -42.4270
   -42.4235 -42.4235 -42.4235 -42.4235 -42.4148 -42.4148 -42.4148 -42.4148
   -42.3726 -42.3726 -42.3726 -42.3726 -42.3615 -42.3615 -42.3615 -42.3615
   -35.9432 -35.9431 -35.9425 -35.9424 -14.1634 -14.0116 -13.9752 -13.9380
   -13.9124 -13.8760 -13.8412 -13.8340 -11.5967 -11.4818 -11.4635 -11.4363
   -11.3107 -11.2648 -11.2574 -11.2368 -11.1975 -11.1687 -11.1592 -11.1549
   -11.1445 -11.1061 -11.0845 -11.0262  -4.3018  -4.2106  -4.1589  -4.0820
    -3.9011  -3.8117  -3.7633  -3.6905  -0.0235   0.0393   0.2155   0.2670
     0.3580   0.3614   0.5025   0.6163   0.6849   0.7001   0.7317   0.8151
     0.8883   0.9491   0.9623   1.1192   1.2447   1.2863   1.3650   1.4439
     1.6421   1.7222   1.9421   2.0267   3.0593   3.0748   3.1591   3.1870
     3.2706   3.2836   3.3011   3.3225   3.3894   3.4439   3.4712   3.5503
     3.5717   3.6048   3.7994   3.8539   3.9275   4.0221   4.0610   4.0734
     4.2243   4.2342   4.2689   4.3037   4.4028   4.4348   4.5850   4.5992
     4.6339   4.7082   4.7448   4.9007   4.9217   5.0360   5.0761   5.1388
     5.1940   5.2041   5.3234   5.3478   5.3927   5.4330   5.4685   5.4961
     5.5372   5.5885   5.6691   5.9305   7.5616   7.6070   7.7538   7.8011
     7.8140   7.8358   7.8878   7.9031   7.9829   7.9840   7.9958   8.0024
     8.0640   8.0746   8.1279   8.1466   8.2052   8.2572   8.4446   8.4505
     8.5073   8.6135   8.6712   8.7168   8.7585   8.7943   8.8100   8.8789
     8.9516   9.0424  11.0791  11.2022  11.2519  11.3065  11.5094  11.6871
    11.6979  11.7996  11.9259  11.9751  11.9808  12.1455  12.2630  12.2967
    12.3856  12.5016  12.6984  12.8261  12.8508  12.9797  13.5592  13.7582
    13.8099  13.8109  14.5892  15.3846  15.4866  15.6781  15.8695  16.2015
    16.2665  16.2781  16.4294  16.5140  16.6693  16.7446  16.9788  17.1145
    17.2405  17.3701  17.4343  17.4668  17.5547  17.6342  17.9200  17.9962
    18.0006  18.1564  18.2099  18.4190  18.4742  18.6713  18.7012  18.7859
    18.8464  18.9124  19.1353  19.2389  19.2642  19.4988  19.5713  19.6876
    19.8479  19.9214  20.0118  20.0242  20.0793  20.2337  20.3395  20.4496
    20.4628  20.7188  20.8288  20.8980  21.0186  21.0523  21.3389  21.3519
    21.5687  21.6227  21.6603  21.8700  21.9953  22.0761  22.1844  22.3052
    22.4289  22.6225  22.6978  22.7809  22.8897  23.0889  23.1984  23.2706
    23.4993  23.5262  23.5715  23.5947  23.7772  23.8735  24.0377  24.0889
    24.2268  24.5333  24.5501  24.7045  24.9491  25.1575  25.2490  25.2670
    25.3848  25.3869  25.7021  25.7342  25.9369  25.9903  26.0221  26.0673
    26.1931  26.2122  26.3302  26.3859  26.8173  26.9800  27.1047  27.1500
    27.2309  27.2392  27.3410  27.7144  27.7358  28.0665  28.1170  28.1207
    28.3737  28.4438  28.4446  28.6563  28.6830  28.7844  28.8208  29.0836
    29.1801  29.2608  29.4171  29.4473  29.5659  29.5875  29.7683  30.0285
    30.1216  30.1879  30.1892  30.4126  30.4627  30.6356  30.7111  30.8729
    30.9380  31.0120  31.1938  31.2413  31.3193  31.3991  31.5127  31.6913
    31.7940  31.8883  32.0146  32.2995  32.3390  32.3545  32.3962  32.5018
    32.6031  32.6465  32.7268  32.8082  32.9004  33.0336  33.2730  33.2843
    33.3962  33.4366  33.5708  33.7269  33.7833  33.8226  33.9318  34.1542
    34.1744  34.3020  34.3280  34.3853  34.4221  34.6103  34.6250  34.6714
    34.7813  34.8010  34.9739  35.0251  35.1056  35.2043  35.2617  35.3949
    35.5233  35.5881  35.8281  35.9565  36.0472  36.0877  36.1068  36.2679
    36.3431  36.3484  36.7388  36.7594  36.8315  37.0047  37.0371  37.0870
    37.1211  37.1837  37.2302  37.3941  37.4201  37.5175  37.5497  37.6108
    37.6233  37.8931  37.9533  38.0434  38.1435  38.1451  38.2091  38.2753
    38.2981  38.3821  38.4890  38.5953  38.6962  38.8097  39.0117  39.0187
    39.0599  39.1660  39.1870  39.2534  39.3703  39.4426  39.5047  39.6425
    39.7296  39.7895  39.8947  39.9679  40.0001  40.1490  40.2893  40.3571
    40.4033  40.4704  40.4954  40.5540  40.7185  40.7313  40.8682  40.9171
    40.9292  41.0617  41.2261  41.3405  41.3507  41.4368  41.5837  41.6233
    41.6772  41.7431  41.7750  42.0343  42.0634  42.1459  42.2286  42.2460
    42.3213  42.4616  42.4624  42.6388  42.6806  42.7407  42.8521  42.9049
    42.9528  42.9537  43.0698  43.1278

     occupation numbers 
     1.0000   1.0000   1.0000   1.0000   1.0000   1.0000   1.0000   1.0000
     1.0000   1.0000   1.0000   1.0000   1.0000   1.0000   1.0000   1.0000
     1.0000   1.0000   1.0000   1.0000   1.0000   1.0000   1.0000   1.0000
     1.0000   1.0000   1.0000   1.0000   1.0000   1.0000   1.0000   1.0000
     1.0000   1.0000   1.0000   1.0000   1.0000   1.0000   1.0000   1.0000
     1.0000   1.0000   1.0000   1.0000   1.0000   1.0000   1.0000   1.0000
     1.0000   1.0000   1.0000   1.0000   1.0000   1.0000   1.0000   1.0000
     1.0000   1.0000   1.0000   1.0000   1.0000   1.0000   1.0000   1.0000
     1.0000   1.0000   1.0000   1.0000   1.0000   1.0000   1.0000   1.0000
     1.0000   1.0000   1.0000   1.0000   1.0000   1.0000   1.0000   1.0000
     1.0000   1.0000   1.0000   1.0000   1.0000   1.0000   1.0000   1.0000
     1.0000   1.0000   1.0000   1.0000   1.0000   1.0000   1.0000   1.0000
     1.0000   1.0000   1.0000   1.0000   1.0000   1.0000   1.0000   1.0000
     1.0000   1.0000   1.0000   1.0000   1.0000   1.0000   1.0000   1.0000
     1.0000   1.0000   1.0000   1.0000   1.0000   1.0000   1.0000   1.0000
     1.0000   1.0000   1.0000   1.0000   1.0000   1.0000   1.0000   1.0000
     1.0000   1.0000   1.0000   1.0000   1.0000   1.0000   1.0000   1.0000
     1.0000   1.0000   1.0000   1.0000   1.0000   1.0000   1.0000   1.0000
     1.0000   1.0000   1.0000   1.0000   1.0000   1.0000   1.0000   1.0000
     1.0000   1.0000   1.0000   1.0000   1.0000   1.0000   1.0000   1.0000
     1.0000   1.0000   1.0000   1.0000   1.0000   1.0000   1.0000   1.0000
     1.0000   1.0000   1.0000   1.0000   1.0000   1.0000   1.0000   1.0000
     1.0000   1.0000   1.0000   1.0000   1.0000   1.0000   1.0000   1.0000
     1.0000   1.0000   1.0000   1.0000   1.0000   1.0000   1.0000   1.0000
     1.0099   0.0000   0.0000   0.0000   0.0000   0.0000   0.0000   0.0000
     0.0000   0.0000   0.0000   0.0000   0.0000   0.0000   0.0000   0.0000
     0.0000   0.0000   0.0000   0.0000   0.0000   0.0000   0.0000   0.0000
     0.0000   0.0000   0.0000   0.0000   0.0000   0.0000   0.0000   0.0000
     0.0000   0.0000   0.0000   0.0000   0.0000   0.0000   0.0000   0.0000
     0.0000   0.0000   0.0000   0.0000   0.0000   0.0000   0.0000   0.0000
     0.0000   0.0000   0.0000   0.0000   0.0000   0.0000   0.0000   0.0000
     0.0000   0.0000   0.0000   0.0000   0.0000   0.0000   0.0000   0.0000
     0.0000   0.0000   0.0000   0.0000   0.0000   0.0000   0.0000   0.0000
     0.0000   0.0000   0.0000   0.0000   0.0000   0.0000   0.0000   0.0000
     0.0000   0.0000   0.0000   0.0000   0.0000   0.0000   0.0000   0.0000
     0.0000   0.0000   0.0000   0.0000   0.0000   0.0000   0.0000   0.0000
     0.0000   0.0000   0.0000   0.0000   0.0000   0.0000   0.0000   0.0000
     0.0000   0.0000   0.0000   0.0000   0.0000   0.0000   0.0000   0.0000
     0.0000   0.0000   0.0000   0.0000   0.0000   0.0000   0.0000   0.0000
     0.0000   0.0000   0.0000   0.0000   0.0000   0.0000   0.0000   0.0000
     0.0000   0.0000   0.0000   0.0000   0.0000   0.0000   0.0000   0.0000
     0.0000   0.0000   0.0000   0.0000   0.0000   0.0000   0.0000   0.0000
     0.0000   0.0000   0.0000   0.0000   0.0000   0.0000   0.0000   0.0000
     0.0000   0.0000   0.0000   0.0000   0.0000   0.0000   0.0000   0.0000
     0.0000   0.0000   0.0000   0.0000   0.0000   0.0000   0.0000   0.0000
     0.0000   0.0000   0.0000   0.0000   0.0000   0.0000   0.0000   0.0000
     0.0000   0.0000   0.0000   0.0000   0.0000   0.0000   0.0000   0.0000
     0.0000   0.0000   0.0000   0.0000   0.0000   0.0000   0.0000   0.0000
     0.0000   0.0000   0.0000   0.0000   0.0000   0.0000   0.0000   0.0000
     0.0000   0.0000   0.0000   0.0000   0.0000   0.0000   0.0000   0.0000
     0.0000   0.0000   0.0000   0.0000   0.0000   0.0000   0.0000   0.0000
     0.0000   0.0000   0.0000   0.0000   0.0000   0.0000   0.0000   0.0000
     0.0000   0.0000   0.0000   0.0000   0.0000   0.0000   0.0000   0.0000
     0.0000   0.0000   0.0000   0.0000   0.0000   0.0000   0.0000   0.0000
     0.0000   0.0000   0.0000   0.0000   0.0000   0.0000   0.0000   0.0000
     0.0000   0.0000   0.0000   0.0000   0.0000   0.0000   0.0000   0.0000
     0.0000   0.0000   0.0000   0.0000   0.0000   0.0000   0.0000   0.0000
     0.0000   0.0000   0.0000   0.0000   0.0000   0.0000   0.0000   0.0000
     0.0000   0.0000   0.0000   0.0000   0.0000   0.0000   0.0000   0.0000
     0.0000   0.0000   0.0000   0.0000   0.0000   0.0000   0.0000   0.0000
     0.0000   0.0000   0.0000   0.0000   0.0000   0.0000   0.0000   0.0000
     0.0000   0.0000   0.0000   0.0000   0.0000   0.0000   0.0000   0.0000
     0.0000   0.0000   0.0000   0.0000

          k = 0.0000 0.0000-0.5768 ( 59496 PWs)   bands (ev):

   -86.0786 -86.0786 -85.7818 -85.7818 -85.7816 -85.7816 -49.5921 -49.5921
   -49.4876 -49.4875 -49.4161 -49.4161 -49.3976 -49.3976 -49.3974 -49.3974
   -49.1855 -49.1855 -49.1843 -49.1843 -49.0471 -49.0471 -49.0450 -49.0450
   -42.5859 -42.5859 -42.5858 -42.5858 -42.5775 -42.5775 -42.5775 -42.5775
   -42.5625 -42.5625 -42.5625 -42.5625 -42.5587 -42.5586 -42.5586 -42.5586
   -42.4427 -42.4427 -42.4427 -42.4427 -42.4270 -42.4270 -42.4270 -42.4270
   -42.4235 -42.4235 -42.4235 -42.4235 -42.4148 -42.4148 -42.4148 -42.4148
   -42.3726 -42.3726 -42.3726 -42.3726 -42.3615 -42.3615 -42.3615 -42.3615
   -35.9432 -35.9432 -35.9425 -35.9425 -14.0891 -14.0891 -13.9538 -13.9538
   -13.8768 -13.8768 -13.8596 -13.8596 -11.5464 -11.5464 -11.4542 -11.4542
   -11.2664 -11.2664 -11.2566 -11.2566 -11.1781 -11.1781 -11.1515 -11.1515
   -11.1171 -11.1171 -11.0697 -11.0697  -4.2402  -4.2402  -4.1420  -4.1420
    -3.8190  -3.8190  -3.7595  -3.7595   0.0079   0.0079   0.2095   0.2095
     0.3454   0.3454   0.5854   0.5854   0.6673   0.6673   0.7475   0.7475
     0.8855   0.8855   1.0143   1.0143   1.3107   1.3107   1.3724   1.3725
     1.7460   1.7460   2.0529   2.0529   3.1259   3.1259   3.1816   3.1816
     3.2612   3.2612   3.3193   3.3193   3.4417   3.4417   3.4972   3.4972
     3.5389   3.5389   3.8304   3.8304   3.9415   3.9415   4.1184   4.1184
     4.2023   4.2024   4.2823   4.2823   4.5016   4.5016   4.5799   4.5799
     4.6724   4.6724   4.7579   4.7579   4.9751   4.9751   5.1552   5.1552
     5.1743   5.1743   5.3136   5.3136   5.4390   5.4391   5.4678   5.4678
     5.5529   5.5529   5.7670   5.7670   7.5809   7.5809   7.7671   7.7671
     7.8418   7.8418   7.8896   7.8896   7.9904   7.9904   7.9981   7.9981
     8.0696   8.0696   8.1368   8.1368   8.2301   8.2302   8.4807   8.4807
     8.5620   8.5620   8.6734   8.6734   8.7971   8.7971   8.8131   8.8131
     8.9901   8.9901  11.1625  11.1625  11.2034  11.2034  11.6633  11.6633
    11.7587  11.7587  11.8798  11.8798  12.1010  12.1010  12.3212  12.3212
    12.4756  12.4756  12.6546  12.6546  12.8488  12.8488  13.6659  13.6659
    13.7717  13.7717  15.0177  15.0177  15.7606  15.7606  15.9089  15.9089
    16.1510  16.1510  16.6358  16.6358  16.7373  16.7373  17.0915  17.0915
    17.3154  17.3154  17.4542  17.4542  17.5810  17.5810  17.9531  17.9531
    18.1182  18.1182  18.3235  18.3235  18.5965  18.5965  18.7268  18.7268
    18.9234  18.9234  19.0450  19.0450  19.3569  19.3569  19.7343  19.7343
    19.8334  19.8334  20.0425  20.0425  20.2798  20.2798  20.2856  20.2856
    20.5673  20.5673  20.7779  20.7780  21.0461  21.0461  21.3288  21.3288
    21.6317  21.6317  21.7410  21.7410  21.9935  21.9935  22.2232  22.2232
    22.6160  22.6160  22.7639  22.7639  23.0815  23.0815  23.3279  23.3279
    23.3854  23.3854  23.5354  23.5355  23.8589  23.8589  24.1758  24.1758
    24.4406  24.4406  24.4744  24.4744  24.8866  24.8866  25.1263  25.1263
    25.2580  25.2580  25.7399  25.7399  25.9559  25.9559  26.0114  26.0114
    26.3829  26.3829  26.5295  26.5295  26.8139  26.8139  27.1251  27.1251
    27.3284  27.3284  27.5691  27.5691  27.9414  27.9414  28.0780  28.0780
    28.3445  28.3445  28.5833  28.5833  28.7969  28.7969  28.9270  28.9270
    29.1198  29.1198  29.4552  29.4552  29.6214  29.6214  29.8796  29.8796
    30.1132  30.1132  30.4349  30.4349  30.5788  30.5788  30.9859  30.9859
    31.0466  31.0466  31.1923  31.1923  31.2789  31.2789  31.7488  31.7488
    31.8811  31.8811  31.9617  31.9617  32.0842  32.0842  32.2872  32.2872
    32.5255  32.5255  32.7577  32.7577  33.0650  33.0650  33.2897  33.2897
    33.5205  33.5205  33.6620  33.6620  33.7345  33.7345  33.9469  33.9469
    34.0291  34.0291  34.3674  34.3674  34.5421  34.5421  34.7015  34.7015
    34.8023  34.8023  34.9190  34.9190  35.3699  35.3699  35.6176  35.6176
    35.6674  35.6674  35.8052  35.8052  35.9723  35.9723  36.2514  36.2514
    36.4000  36.4000  36.6954  36.6954  36.8001  36.8001  36.9347  36.9347
    37.0805  37.0805  37.3024  37.3024  37.5353  37.5353  37.6504  37.6504
    37.8041  37.8041  37.9053  37.9053  38.2411  38.2411  38.2897  38.2897
    38.3874  38.3874  38.6179  38.6179  38.9157  38.9157  39.1091  39.1091
    39.1828  39.1828  39.3128  39.3128  39.3504  39.3504  39.4138  39.4138
    39.6333  39.6333  39.7342  39.7342  39.8841  39.8841  40.2708  40.2708
    40.3891  40.3891  40.6885  40.6885  40.7893  40.7893  40.9044  40.9044
    41.1121  41.1121  41.2911  41.2911  41.3641  41.3641  41.4176  41.4176
    41.6733  41.6733  41.8657  41.8657  42.0269  42.0269  42.2014  42.2014
    42.3586  42.3586  42.5194  42.5194  42.6875  42.6875  42.7923  42.7923
    43.0260  43.0260  43.1857  43.1857

     occupation numbers 
     1.0000   1.0000   1.0000   1.0000   1.0000   1.0000   1.0000   1.0000
     1.0000   1.0000   1.0000   1.0000   1.0000   1.0000   1.0000   1.0000
     1.0000   1.0000   1.0000   1.0000   1.0000   1.0000   1.0000   1.0000
     1.0000   1.0000   1.0000   1.0000   1.0000   1.0000   1.0000   1.0000
     1.0000   1.0000   1.0000   1.0000   1.0000   1.0000   1.0000   1.0000
     1.0000   1.0000   1.0000   1.0000   1.0000   1.0000   1.0000   1.0000
     1.0000   1.0000   1.0000   1.0000   1.0000   1.0000   1.0000   1.0000
     1.0000   1.0000   1.0000   1.0000   1.0000   1.0000   1.0000   1.0000
     1.0000   1.0000   1.0000   1.0000   1.0000   1.0000   1.0000   1.0000
     1.0000   1.0000   1.0000   1.0000   1.0000   1.0000   1.0000   1.0000
     1.0000   1.0000   1.0000   1.0000   1.0000   1.0000   1.0000   1.0000
     1.0000   1.0000   1.0000   1.0000   1.0000   1.0000   1.0000   1.0000
     1.0000   1.0000   1.0000   1.0000   1.0000   1.0000   1.0000   1.0000
     1.0000   1.0000   1.0000   1.0000   1.0000   1.0000   1.0000   1.0000
     1.0000   1.0000   1.0000   1.0000   1.0000   1.0000   1.0000   1.0000
     1.0000   1.0000   1.0000   1.0000   1.0000   1.0000   1.0000   1.0000
     1.0000   1.0000   1.0000   1.0000   1.0000   1.0000   1.0000   1.0000
     1.0000   1.0000   1.0000   1.0000   1.0000   1.0000   1.0000   1.0000
[...]
     atom   29 type  3   force =     0.59232156   -1.00425237    4.37818236
     atom   30 type  3   force =    -0.59232156   -1.00425237   -4.37818236
     atom   31 type  3   force =     6.78325851    4.38592964    4.63345926
     atom   32 type  3   force =    -6.78325851    4.38592964   -4.63345926
     atom   33 type  3   force =    -6.78325851   -4.38592964   -4.63345926
     atom   34 type  3   force =     6.78325851   -4.38592964    4.63345926
     atom   35 type  3   force =     4.85872599   -3.85355834   -4.57856574
     atom   36 type  3   force =    -4.85872599   -3.85355834    4.57856574
     atom   37 type  3   force =    -4.85872599    3.85355834    4.57856574
     atom   38 type  3   force =     4.85872599    3.85355834   -4.57856574
     atom   39 type  2   force =    -0.96375940   -0.55115245   -0.92844803
     atom   40 type  2   force =     0.96375940   -0.55115245    0.92844803
     atom   41 type  2   force =     0.96375940    0.55115245    0.92844803
     atom   42 type  2   force =    -0.96375940    0.55115245   -0.92844803
     The local contribution  to forces
     atom    1 type  4   force =     7.92883434   -1.22718188   20.97405739
     atom    2 type  4   force =    -7.92889292   -1.22701172  -20.97410037
     atom    3 type  4   force =    -7.92883434    1.22718188  -20.97405739
     atom    4 type  4   force =     7.92889292    1.22701172   20.97410037
     atom    5 type  4   force =    20.70912719    6.72344421    3.39717671
     atom    6 type  4   force =   -20.70910402    6.72322055   -3.39726776
     atom    7 type  4   force =   -20.70912719   -6.72344421   -3.39717671
     atom    8 type  4   force =    20.70910402   -6.72322055    3.39726776
     atom    9 type  1   force =     0.00000000   -0.00000000    0.00000000
     atom   10 type  1   force =     0.00000000    0.00000000    0.00000000
     atom   11 type  1   force =     4.67694028   -1.05939762   -6.07937642
     atom   12 type  1   force =    -4.67686634   -1.05939132    6.07931674
     atom   13 type  1   force =    -4.67694028    1.05939762    6.07937642
     atom   14 type  1   force =     4.67686634    1.05939132   -6.07931674
     atom   15 type  3   force =    -3.61191154   -3.18467607    8.11154933
     atom   16 type  3   force =     3.61187203   -3.18462009   -8.11163596
     atom   17 type  3   force =     3.61191154    3.18467607   -8.11154933
     atom   18 type  3   force =    -3.61187203    3.18462009    8.11163596
     atom   19 type  3   force =     4.51942167    6.09487971   -8.89937653
     atom   20 type  3   force =    -4.51942064    6.09494025    8.89935811
     atom   21 type  3   force =    -4.51942167   -6.09487971    8.89937653
     atom   22 type  3   force =     4.51942064   -6.09494025   -8.89935811
     atom   23 type  3   force =     3.28377060    2.33882681   -1.59243086
     atom   24 type  3   force =    -3.28378265    2.33886938    1.59242079
     atom   25 type  3   force =    -3.28377060   -2.33882681    1.59243086
     atom   26 type  3   force =     3.28378265   -2.33886938   -1.59242079
     atom   27 type  3   force =     0.71554179   -0.16856727    4.05563746
     atom   28 type  3   force =    -0.71545775   -0.16867667   -4.05567834
     atom   29 type  3   force =    -0.71554179    0.16856727   -4.05563746
     atom   30 type  3   force =     0.71545775    0.16867667    4.05567834
     atom   31 type  3   force =    -5.95470850   -4.42836485   -3.85504768
     atom   32 type  3   force =     5.95475991   -4.42848344    3.85496763
     atom   33 type  3   force =     5.95470850    4.42836485    3.85504768
     atom   34 type  3   force =    -5.95475991    4.42848344   -3.85496763
     atom   35 type  3   force =    -4.09659418    3.37937254    3.75378750
     atom   36 type  3   force =     4.09659584    3.37931753   -3.75378473
     atom   37 type  3   force =     4.09659418   -3.37937254   -3.75378750
     atom   38 type  3   force =    -4.09659584   -3.37931753    3.75378473
     atom   39 type  2   force =     0.94601420    0.58193687    0.90332244
     atom   40 type  2   force =    -0.94602148    0.58196877   -0.90330804
     atom   41 type  2   force =    -0.94601420   -0.58193687   -0.90332244
     atom   42 type  2   force =     0.94602148   -0.58196877    0.90330804
     The core correction contribution to forces
     atom    1 type  4   force =    -0.00728450   -0.00023826   -0.01539049
     atom    2 type  4   force =     0.00728444   -0.00023782    0.01539051
     atom    3 type  4   force =     0.00728450    0.00023826    0.01539049
     atom    4 type  4   force =    -0.00728444    0.00023782   -0.01539051
     atom    5 type  4   force =    -0.01474969   -0.00174569    0.00530420
     atom    6 type  4   force =     0.01474948   -0.00174618   -0.00530395
     atom    7 type  4   force =     0.01474969    0.00174569   -0.00530420
     atom    8 type  4   force =    -0.01474948    0.00174618    0.00530395
     atom    9 type  1   force =    -0.00000000   -0.00000000   -0.00000000
     atom   10 type  1   force =     0.00000000    0.00000000   -0.00000000
     atom   11 type  1   force =     0.00679854   -0.00027250    0.00883891
     atom   12 type  1   force =    -0.00679979   -0.00027329   -0.00883897
     atom   13 type  1   force =    -0.00679854    0.00027250   -0.00883891
     atom   14 type  1   force =     0.00679979    0.00027329    0.00883897
     atom   15 type  3   force =     0.02274773    0.01271129   -0.00906013
     atom   16 type  3   force =    -0.02274757    0.01271117    0.00905994
     atom   17 type  3   force =    -0.02274773   -0.01271129    0.00906013
     atom   18 type  3   force =     0.02274757   -0.01271117   -0.00905994
     atom   19 type  3   force =    -0.00255764   -0.02093059    0.02258418
     atom   20 type  3   force =     0.00255788   -0.02093063   -0.02258455
     atom   21 type  3   force =     0.00255764    0.02093059   -0.02258418
     atom   22 type  3   force =    -0.00255788    0.02093063    0.02258455
     atom   23 type  3   force =    -0.01735885    0.00467061    0.01750649
     atom   24 type  3   force =     0.01735891    0.00467059   -0.01750647
     atom   25 type  3   force =     0.01735885   -0.00467061   -0.01750649
     atom   26 type  3   force =    -0.01735891   -0.00467059    0.01750647
     atom   27 type  3   force =     0.00199972    0.01594891   -0.00797321
     atom   28 type  3   force =    -0.00199913    0.01594845    0.00797281
     atom   29 type  3   force =    -0.00199972   -0.01594891    0.00797321
     atom   30 type  3   force =     0.00199913   -0.01594845   -0.00797281
     atom   31 type  3   force =     0.02081764    0.00292292    0.01708195
     atom   32 type  3   force =    -0.02081721    0.00292234   -0.01708245
     atom   33 type  3   force =    -0.02081764   -0.00292292   -0.01708195
     atom   34 type  3   force =     0.02081721   -0.00292234    0.01708245
     atom   35 type  3   force =     0.02052614   -0.00948583   -0.01666135
     atom   36 type  3   force =    -0.02052610   -0.00948580    0.01666124
     atom   37 type  3   force =    -0.02052614    0.00948583    0.01666135
     atom   38 type  3   force =     0.02052610    0.00948580   -0.01666124
     atom   39 type  2   force =     0.00000000    0.00000000    0.00000000
     atom   40 type  2   force =     0.00000000    0.00000000    0.00000000
     atom   41 type  2   force =     0.00000000    0.00000000    0.00000000
     atom   42 type  2   force =     0.00000000    0.00000000    0.00000000
     The Hubbard contrib.    to forces
     atom    1 type  4   force =     0.00000000    0.00000000    0.00000000
     atom    2 type  4   force =     0.00000000    0.00000000    0.00000000
     atom    3 type  4   force =     0.00000000    0.00000000    0.00000000
     atom    4 type  4   force =     0.00000000    0.00000000    0.00000000
     atom    5 type  4   force =     0.00000000    0.00000000    0.00000000
     atom    6 type  4   force =     0.00000000    0.00000000    0.00000000
     atom    7 type  4   force =     0.00000000    0.00000000    0.00000000
     atom    8 type  4   force =     0.00000000    0.00000000    0.00000000
     atom    9 type  1   force =     0.00000000    0.00000000    0.00000000
     atom   10 type  1   force =     0.00000000    0.00000000    0.00000000
     atom   11 type  1   force =     0.00000000    0.00000000    0.00000000
     atom   12 type  1   force =     0.00000000    0.00000000    0.00000000
     atom   13 type  1   force =     0.00000000    0.00000000    0.00000000
     atom   14 type  1   force =     0.00000000    0.00000000    0.00000000
     atom   15 type  3   force =     0.00000000    0.00000000    0.00000000
     atom   16 type  3   force =     0.00000000    0.00000000    0.00000000
     atom   17 type  3   force =     0.00000000    0.00000000    0.00000000
     atom   18 type  3   force =     0.00000000    0.00000000    0.00000000
     atom   19 type  3   force =     0.00000000    0.00000000    0.00000000
     atom   20 type  3   force =     0.00000000    0.00000000    0.00000000
     atom   21 type  3   force =     0.00000000    0.00000000    0.00000000
     atom   22 type  3   force =     0.00000000    0.00000000    0.00000000
     atom   23 type  3   force =     0.00000000    0.00000000    0.00000000
     atom   24 type  3   force =     0.00000000    0.00000000    0.00000000
     atom   25 type  3   force =     0.00000000    0.00000000    0.00000000
     atom   26 type  3   force =     0.00000000    0.00000000    0.00000000
     atom   27 type  3   force =     0.00000000    0.00000000    0.00000000
     atom   28 type  3   force =     0.00000000    0.00000000    0.00000000
     atom   29 type  3   force =     0.00000000    0.00000000    0.00000000
     atom   30 type  3   force =     0.00000000    0.00000000    0.00000000
     atom   31 type  3   force =     0.00000000    0.00000000    0.00000000
     atom   32 type  3   force =     0.00000000    0.00000000    0.00000000
     atom   33 type  3   force =     0.00000000    0.00000000    0.00000000
     atom   34 type  3   force =     0.00000000    0.00000000    0.00000000
     atom   35 type  3   force =     0.00000000    0.00000000    0.00000000
     atom   36 type  3   force =     0.00000000    0.00000000    0.00000000
     atom   37 type  3   force =     0.00000000    0.00000000    0.00000000
     atom   38 type  3   force =     0.00000000    0.00000000    0.00000000
     atom   39 type  2   force =     0.00000000    0.00000000    0.00000000
     atom   40 type  2   force =     0.00000000    0.00000000    0.00000000
     atom   41 type  2   force =     0.00000000    0.00000000    0.00000000
     atom   42 type  2   force =     0.00000000    0.00000000    0.00000000
     The SCF correction term to forces
     atom    1 type  4   force =     0.00009788    0.00027762   -0.00013295
     atom    2 type  4   force =    -0.00003460    0.00010322    0.00017540
     atom    3 type  4   force =    -0.00009788   -0.00027762    0.00013295
     atom    4 type  4   force =     0.00003460   -0.00010322   -0.00017540
     atom    5 type  4   force =    -0.00001281   -0.00003070    0.00012974
     atom    6 type  4   force =    -0.00001707    0.00020014   -0.00004176
     atom    7 type  4   force =     0.00001281    0.00003070   -0.00012974
     atom    8 type  4   force =     0.00001707   -0.00020014    0.00004176
     atom    9 type  1   force =     0.00000000   -0.00000000    0.00000000
     atom   10 type  1   force =     0.00000000    0.00000000   -0.00000000
     atom   11 type  1   force =     0.00036544   -0.00011999    0.00024023
     atom   12 type  1   force =    -0.00045277   -0.00012483   -0.00017701
     atom   13 type  1   force =    -0.00036544    0.00011999   -0.00024023
     atom   14 type  1   force =     0.00045277    0.00012483    0.00017701
     atom   15 type  3   force =     0.00011044    0.00021187    0.00031558
     atom   16 type  3   force =    -0.00007018    0.00015378   -0.00023313
     atom   17 type  3   force =    -0.00011044   -0.00021187   -0.00031558
     atom   18 type  3   force =     0.00007018   -0.00015378    0.00023313
     atom   19 type  3   force =    -0.00005170    0.00003872   -0.00008813
     atom   20 type  3   force =     0.00005390   -0.00002324    0.00010042
     atom   21 type  3   force =     0.00005170   -0.00003872    0.00008813
     atom   22 type  3   force =    -0.00005390    0.00002324   -0.00010042
     atom   23 type  3   force =     0.00007962   -0.00002330   -0.00010450
     atom   24 type  3   force =    -0.00006599   -0.00006794    0.00011500
     atom   25 type  3   force =    -0.00007962    0.00002330    0.00010450
     atom   26 type  3   force =     0.00006599    0.00006794   -0.00011500
     atom   27 type  3   force =     0.00019644    0.00002490   -0.00004961
     atom   28 type  3   force =    -0.00027326    0.00012594    0.00008575
     atom   29 type  3   force =    -0.00019644   -0.00002490    0.00004961
     atom   30 type  3   force =     0.00027326   -0.00012594   -0.00008575
     atom   31 type  3   force =    -0.00021861   -0.00037185    0.00017285
     atom   32 type  3   force =     0.00017251   -0.00026299   -0.00009848
     atom   33 type  3   force =     0.00021861    0.00037185   -0.00017285
     atom   34 type  3   force =    -0.00017251    0.00026299    0.00009848
     atom   35 type  3   force =    -0.00013345   -0.00005835   -0.00001974
     atom   36 type  3   force =     0.00013179   -0.00000174    0.00001653
     atom   37 type  3   force =     0.00013345    0.00005835    0.00001974
     atom   38 type  3   force =    -0.00013179    0.00000174   -0.00001653
     atom   39 type  2   force =     0.00000886   -0.00001572    0.00004155
     atom   40 type  2   force =    -0.00000153   -0.00004744   -0.00005595
     atom   41 type  2   force =    -0.00000886    0.00001572   -0.00004155
     atom   42 type  2   force =     0.00000153    0.00004744    0.00005595

     Total force =     0.352298     Total SCF correction =     0.001721


     Computing stress (Cartesian axis) and pressure

          total   stress  (Ry/bohr**3)                   (kbar)     P=      -30.95
  -0.00017250   0.00000001  -0.00000548          -25.38        0.00       -0.81
   0.00000001  -0.00018309  -0.00000004            0.00      -26.93       -0.01
  -0.00000548  -0.00000004  -0.00027556           -0.81       -0.01      -40.54

     kinetic stress (kbar)  73810.67      0.00    129.15
                                0.00  73521.41      0.02
                              129.15      0.02  73628.34

     local   stress (kbar) -13890.39      0.00   3541.06
                                0.00 -19862.07     -0.02
                             3541.06     -0.02 -13693.37

     nonloc. stress (kbar) -36610.54     -0.00    -21.06
                               -0.00 -36620.86     -0.01
                              -21.06     -0.01 -36560.82

     hartree stress (kbar)  21467.60     -0.00  -1447.37
                               -0.00  23534.17      0.01
                            -1447.37      0.01  21056.61

     exc-cor stress (kbar)   6717.59      0.00     -0.61
                                0.00   6718.39      0.00
                               -0.61      0.00   6718.37

     corecor stress (kbar) -16590.56     -0.00     -1.70
                               -0.00 -16587.13     -0.00
                               -1.70     -0.00 -16588.52

     ewald   stress (kbar) -34929.74      0.00  -2200.27
                                0.00 -30730.84     -0.00
                            -2200.27     -0.00 -34601.13

     hubbard stress (kbar)      0.00      0.00      0.00
                                0.00      0.00      0.00
                                0.00      0.00      0.00

     DFT-D   stress (kbar)      0.00      0.00      0.00
                                0.00      0.00      0.00
                                0.00      0.00      0.00

     XDM     stress (kbar)      0.00      0.00      0.00
                                0.00      0.00      0.00
                                0.00      0.00      0.00

     dft-nl  stress (kbar)      0.00      0.00      0.00
                                0.00      0.00      0.00
                                0.00      0.00      0.00

     TS-vdW  stress (kbar)      0.00      0.00      0.00
                                0.00      0.00      0.00
                                0.00      0.00      0.00

     MDB     stress (kbar)      0.00      0.00      0.00
                                0.00      0.00      0.00
                                0.00      0.00      0.00

     3D-RISM stress (kbar)      0.00      0.00      0.00
                                0.00      0.00      0.00
                                0.00      0.00      0.00


     Writing all to output data dir ./out/lcso.save/
 
     init_run     :     73.44s CPU     75.80s WALL (       1 calls)
     electrons    :   6266.58s CPU   6393.10s WALL (       1 calls)
     forces       :     38.86s CPU     39.97s WALL (       1 calls)
     stress       :   1295.16s CPU   1300.52s WALL (       1 calls)

     Called by init_run:
     wfcinit      :     71.43s CPU     73.65s WALL (       1 calls)
     wfcinit:atom :      0.27s CPU      0.47s WALL (     112 calls)
     wfcinit:wfcr :     68.63s CPU     69.97s WALL (     112 calls)
     potinit      :      0.45s CPU      0.47s WALL (       1 calls)
     hinit0       :      1.32s CPU      1.43s WALL (       1 calls)

     Called by electrons:
     c_bands      :   6020.36s CPU   6143.53s WALL (      17 calls)
     sum_band     :    245.78s CPU    248.96s WALL (      17 calls)
     v_of_rho     :      0.37s CPU      0.43s WALL (      18 calls)
     v_h          :      0.04s CPU      0.04s WALL (      18 calls)
     v_xc         :      0.36s CPU      0.42s WALL (      20 calls)
     mix_rho      :      0.06s CPU      0.08s WALL (      17 calls)

     Called by c_bands:
     init_us_2    :     21.27s CPU     21.37s WALL (    4144 calls)
     init_us_2:cp :     21.25s CPU     21.37s WALL (    4144 calls)
     cegterg      :   5913.75s CPU   6035.56s WALL (    1904 calls)

     Called by sum_band:
     sum_band:wei :      0.51s CPU      0.52s WALL (      17 calls)
     sum_band:loo :    245.17s CPU    248.32s WALL (      17 calls)
     sum_band:buf :      8.71s CPU      9.31s WALL (    1904 calls)
     sum_band:ini :      9.68s CPU      9.72s WALL (    1904 calls)

     Called by *egterg:
     cdiaghg      :   2316.89s CPU   2333.43s WALL (   13078 calls)
     cegterg:over :    588.76s CPU    601.04s WALL (   11174 calls)
     cegterg:upda :    461.86s CPU    475.96s WALL (   11174 calls)
     cegterg:last :    695.15s CPU    724.64s WALL (    3977 calls)
     cdiaghg:chol :     84.18s CPU     84.46s WALL (   13078 calls)
     cdiaghg:inve :     20.29s CPU     20.38s WALL (   13078 calls)
     cdiaghg:para :    194.99s CPU    205.81s WALL (   26156 calls)
     h_psi        :   1701.50s CPU   1739.72s WALL (   13190 calls)
     g_psi        :      9.78s CPU      9.84s WALL (   11174 calls)

     Called by h_psi:
     h_psi:calbec :    333.39s CPU    344.24s WALL (   13190 calls)
     vloc_psi     :   1047.02s CPU   1058.52s WALL (   13190 calls)
     add_vuspsi   :    303.45s CPU    306.68s WALL (   13190 calls)

     General routines
     calbec       :    377.19s CPU    389.40s WALL (   13750 calls)
     fft          :      0.53s CPU      0.70s WALL (     204 calls)
     ffts         :      0.01s CPU      0.01s WALL (      17 calls)
     fftw         :   1114.04s CPU   1126.24s WALL ( 5644596 calls)
 
     Parallel routines
 
     PWSCF        :      2h 8m CPU      2h10m WALL

 
   This run was terminated on:  19:20:51   9May2024            

=------------------------------------------------------------------------------=
   JOB DONE.
=------------------------------------------------------------------------------=
