
     Program PWSCF v.7.2 starts on  3May2024 at 19:44:19 

     This program is part of the open-source Quantum ESPRESSO suite
     for quantum simulation of materials; please cite
         "P. Giannozzi et al., J. Phys.:Condens. Matter 21 395502 (2009);
         "P. Giannozzi et al., J. Phys.:Condens. Matter 29 465901 (2017);
         "P. Giannozzi et al., J. Chem. Phys. 152 154105 (2020);
          URL http://www.quantum-espresso.org", 
     in publications or presentations arising from this work. More details at
     http://www.quantum-espresso.org/quote

     Parallel version (MPI), running on    36 processors

     MPI processes distributed on     1 nodes
     246161 MiB available memory on the printing compute node when the environment starts
 
     Reading input from ncso_nscf.in

     Current dimensions of program PWSCF are:
     Max number of different atomic species (ntypx) = 10
     Max number of k-points (npk) =  40000
     Max angular momentum in pseudopotentials (lmaxx) =  4

     Atomic positions and unit cell read from directory:
     ./out/ncso.save/
     Atomic positions from file used, from input discarded
 
     Message from routine setup:
     using ibrav=0 with symmetry is DISCOURAGED, use correct ibrav instead
 
     R & G space division:  proc/nbgrp/npool/nimage =      36
     Subspace diagonalization in iterative solution of the eigenvalue problem:
     one sub-group per band group will be used
     custom distributed-memory algorithm (size of sub-group:  5*  5 procs)

 
     Parallelization info
     --------------------
     sticks:   dense  smooth     PW     G-vecs:    dense   smooth      PW
     Min         235     235     64                13233    13233    1878
     Max         236     236     65                13237    13237    1881
     Sum        8475    8475   2311               476443   476443   67657
 
     Using Slab Decomposition
 


     bravais-lattice index     =            0
     lattice parameter (alat)  =      15.2665  a.u.
     unit-cell volume          =    3526.2206 (a.u.)^3
     number of atoms/cell      =           42
     number of atomic types    =            4
     number of electrons       =       410.00
     number of Kohn-Sham states=          500
     kinetic-energy cutoff     =     100.0000  Ry
     charge density cutoff     =     400.0000  Ry
     Exchange-correlation= PBESOL
                           (   1   4  10   8   0   0   0)

     celldm(1)=  15.266530  celldm(2)=   0.000000  celldm(3)=   0.000000
     celldm(4)=   0.000000  celldm(5)=   0.000000  celldm(6)=   0.000000

     crystal axes: (cart. coord. in units of alat)
               a(1) = (   1.000000   0.000000   0.000000 )  
               a(2) = (   0.000000   1.143204   0.000000 )  
               a(3) = (  -0.418829   0.000000   0.866892 )  

     reciprocal axes: (cart. coord. in units 2 pi/alat)
               b(1) = (  1.000000  0.000000  0.483139 )  
               b(2) = (  0.000000  0.874735  0.000000 )  
               b(3) = (  0.000000  0.000000  1.153547 )  


     PseudoPot. # 1 for Co read from file:
     /projects/p31387/PP/PBEsol_NC_SR/Co.upf
     MD5 check sum: da2f8eda8ae963674925720b0359a264
     Pseudo is Norm-conserving + core correction, Zval = 17.0
     Generated using ONCVPSP code by D. R. Hamann
     Using radial grid of 1388 points,  6 beta functions with: 
                l(1) =   0
                l(2) =   0
                l(3) =   1
                l(4) =   1
                l(5) =   2
                l(6) =   2

     PseudoPot. # 2 for Na read from file:
     /projects/p31387/PP/PBEsol_NC_SR/Na.upf
     MD5 check sum: 3cf33920b0d224cc73e566865edb8ea2
     Pseudo is Norm-conserving, Zval =  9.0
     Generated using ONCVPSP code by D. R. Hamann
     Using radial grid of 2016 points,  4 beta functions with: 
                l(1) =   0
                l(2) =   0
                l(3) =   1
                l(4) =   1

     PseudoPot. # 3 for O  read from file:
     /projects/p31387/PP/PBEsol_NC_SR/O.upf
     MD5 check sum: f226cbcd508cec715ff87a8f75a1dfba
     Pseudo is Norm-conserving + core correction, Zval =  6.0
     Generated using ONCVPSP code by D. R. Hamann
     Using radial grid of  936 points,  5 beta functions with: 
                l(1) =   0
                l(2) =   0
                l(3) =   1
                l(4) =   1
                l(5) =   2

     PseudoPot. # 4 for Se read from file:
     /projects/p31387/PP/PBEsol_NC_SR/Se.upf
     MD5 check sum: c42e2feaec75ccac7da27b7ff1240b9c
     Pseudo is Norm-conserving + core correction, Zval = 16.0
     Generated using ONCVPSP code by D. R. Hamann
     Using radial grid of 1198 points,  6 beta functions with: 
                l(1) =   0
                l(2) =   0
                l(3) =   1
                l(4) =   1
                l(5) =   2
                l(6) =   2

     atomic species   valence    mass     pseudopotential
        Co            17.00    58.93319     Co( 1.00)
        Na             9.00    22.99000     Na( 1.00)
        O              6.00    15.99940     O ( 1.00)
        Se            16.00    78.96000     Se( 1.00)

      2 Sym. Ops., with inversion, found


                                    s                        frac. trans.

      isym =  1     identity                                     

 cryst.   s( 1) = (     1          0          0      )
                  (     0          1          0      )
                  (     0          0          1      )

 cart.    s( 1) = (  1.0000000  0.0000000  0.0000000 )
                  (  0.0000000  1.0000000  0.0000000 )
                  (  0.0000000  0.0000000  1.0000000 )


      isym =  2     inversion                                    

 cryst.   s( 2) = (    -1          0          0      )
                  (     0         -1          0      )
                  (     0          0         -1      )

 cart.    s( 2) = ( -1.0000000  0.0000000  0.0000000 )
                  (  0.0000000 -1.0000000  0.0000000 )
                  (  0.0000000  0.0000000 -1.0000000 )


   Cartesian axes

     site n.     atom                  positions (alat units)
         1           Se  tau(   1) = (  -0.2147682   0.9460011   0.6386737  )
         2           Se  tau(   2) = (   0.5865245   0.3743992   0.6616637  )
         3           Se  tau(   3) = (   0.7959390   0.1972026   0.2282179  )
         4           Se  tau(   4) = (  -0.0053536   0.7688045   0.2052279  )
         5           Se  tau(   5) = (   0.0659170   0.2098922   0.5387125  )
         6           Se  tau(   6) = (   0.3058393   0.7814941   0.7616250  )
         7           Se  tau(   7) = (   0.5152538   0.9333115   0.3281792  )
         8           Se  tau(   8) = (   0.2753316   0.3617097   0.1052666  )
         9           Co  tau(   9) = (   0.5000000   0.0000000   0.0000000  )
        10           Co  tau(  10) = (   0.2905854   0.5716019   0.4334458  )
        11           Co  tau(  11) = (  -0.0727120   0.5822451   0.5860881  )
        12           Co  tau(  12) = (   0.4444683   0.0106432   0.7142493  )
        13           Co  tau(  13) = (   0.6538829   0.5609586   0.2808035  )
        14           Co  tau(  14) = (   0.1367026   1.1325605   0.1526423  )
        15           O   tau(  15) = (  -0.0354590   1.0493010   0.6607188  )
        16           O   tau(  16) = (   0.4072153   0.4776991   0.6396186  )
        17           O   tau(  17) = (   0.6166299   0.0939028   0.2061728  )
        18           O   tau(  18) = (   0.1739556   0.6655046   0.2272730  )
        19           O   tau(  19) = (  -0.1745800   0.7597732   0.7266025  )
        20           O   tau(  20) = (   0.5463363   0.1881713   0.5737349  )
        21           O   tau(  21) = (   0.7557509   0.3834305   0.1402891  )
        22           O   tau(  22) = (   0.0348345   0.9550324   0.2931567  )
        23           O   tau(  23) = (  -0.3380248   1.0304038   0.7873196  )
        24           O   tau(  24) = (   0.7097811   0.4588020   0.5130178  )
        25           O   tau(  25) = (   0.9191957   0.1127999   0.0795720  )
        26           O   tau(  26) = (  -0.1286102   0.6844018   0.3538738  )
        27           O   tau(  27) = (   0.0965834   0.4175780   0.5003872  )
        28           O   tau(  28) = (   0.2751728   0.9891799   0.7999502  )
        29           O   tau(  29) = (   0.4845874   0.7256257   0.3665044  )
        30           O   tau(  30) = (   0.3059980   0.1540238   0.0669414  )
        31           O   tau(  31) = (   0.1972582   0.1710004   0.7019135  )
        32           O   tau(  32) = (   0.1744981   0.7426023   0.5984239  )
        33           O   tau(  33) = (   0.3839126   0.9722033   0.1649781  )
        34           O   tau(  34) = (   0.4066728   0.4006015   0.2684677  )
        35           O   tau(  35) = (   0.1733956   0.1218541   0.3842670  )
        36           O   tau(  36) = (   0.6171898   0.6934560   0.0491788  )
        37           O   tau(  37) = (   0.4077752   1.0213496   0.4826246  )
        38           O   tau(  38) = (  -0.0360190   0.4497478   0.8177129  )
        39           Na  tau(  39) = (   0.3639167   0.7333652   0.0701315  )
        40           Na  tau(  40) = (   0.4266687   0.1617633   0.3633143  )
        41           Na  tau(  41) = (   0.2172541   0.4098385   0.7967601  )
        42           Na  tau(  42) = (   0.1545021   0.9814404   0.5035773  )

   Crystallographic axes

     site n.     atom                  positions (cryst. coord.)
         1           Se  tau(   1) = (  0.0938000  0.8275000  0.7367400  )
         2           Se  tau(   2) = (  0.9062000  0.3275000  0.7632600  )
         3           Se  tau(   3) = (  0.9062000  0.1725000  0.2632600  )
         4           Se  tau(   4) = (  0.0938000  0.6725000  0.2367400  )
         5           Se  tau(   5) = (  0.3261900  0.1836000  0.6214300  )
         6           Se  tau(   6) = (  0.6738100  0.6836000  0.8785700  )
         7           Se  tau(   7) = (  0.6738100  0.8164000  0.3785700  )
         8           Se  tau(   8) = (  0.3261900  0.3164000  0.1214300  )
         9           Co  tau(   9) = (  0.5000000  0.0000000  0.0000000  )
        10           Co  tau(  10) = (  0.5000000  0.5000000  0.5000000  )
        11           Co  tau(  11) = (  0.2104500  0.5093100  0.6760800  )
        12           Co  tau(  12) = (  0.7895500  0.0093100  0.8239200  )
        13           Co  tau(  13) = (  0.7895500  0.4906900  0.3239200  )
        14           Co  tau(  14) = (  0.2104500  0.9906900  0.1760800  )
        15           O   tau(  15) = (  0.2837600  0.9178600  0.7621700  )
        16           O   tau(  16) = (  0.7162400  0.4178600  0.7378300  )
        17           O   tau(  17) = (  0.7162400  0.0821400  0.2378300  )
        18           O   tau(  18) = (  0.2837600  0.5821400  0.2621700  )
        19           O   tau(  19) = (  0.1764700  0.6646000  0.8381700  )
        20           O   tau(  20) = (  0.8235300  0.1646000  0.6618300  )
        21           O   tau(  21) = (  0.8235300  0.3354000  0.1618300  )
        22           O   tau(  22) = (  0.1764700  0.8354000  0.3381700  )
        23           O   tau(  23) = (  0.0423600  0.9013300  0.9082100  )
        24           O   tau(  24) = (  0.9576400  0.4013300  0.5917900  )
        25           O   tau(  25) = (  0.9576400  0.0986700  0.0917900  )
        26           O   tau(  26) = (  0.0423600  0.5986700  0.4082100  )
        27           O   tau(  27) = (  0.3383400  0.3652700  0.5772200  )
        28           O   tau(  28) = (  0.6616600  0.8652700  0.9227800  )
        29           O   tau(  29) = (  0.6616600  0.6347300  0.4227800  )
        30           O   tau(  30) = (  0.3383400  0.1347300  0.0772200  )
        31           O   tau(  31) = (  0.5363800  0.1495800  0.8096900  )
        32           O   tau(  32) = (  0.4636200  0.6495800  0.6903100  )
        33           O   tau(  33) = (  0.4636200  0.8504200  0.1903100  )
        34           O   tau(  34) = (  0.5363800  0.3504200  0.3096900  )
        35           O   tau(  35) = (  0.3590500  0.1065900  0.4432700  )
        36           O   tau(  36) = (  0.6409500  0.6065900  0.0567300  )
        37           O   tau(  37) = (  0.6409500  0.8934100  0.5567300  )
        38           O   tau(  38) = (  0.3590500  0.3934100  0.9432700  )
        39           Na  tau(  39) = (  0.3978000  0.6415000  0.0809000  )
        40           Na  tau(  40) = (  0.6022000  0.1415000  0.4191000  )
        41           Na  tau(  41) = (  0.6022000  0.3585000  0.9191000  )
        42           Na  tau(  42) = (  0.3978000  0.8585000  0.5809000  )

     number of k points=   112  Marzari-Vanderbilt smearing, width (Ry)=  0.0010
                       cart. coord. in units 2pi/alat
        k(    1) = (   0.0000000   0.0000000   0.0000000), wk =   0.0092593
        k(    2) = (   0.0000000   0.0000000   0.1922578), wk =   0.0185185
        k(    3) = (   0.0000000   0.0000000   0.3845156), wk =   0.0185185
        k(    4) = (   0.0000000   0.0000000  -0.5767734), wk =   0.0092593
        k(    5) = (   0.0000000   0.1457891   0.0000000), wk =   0.0185185
        k(    6) = (   0.0000000   0.1457891   0.1922578), wk =   0.0185185
        k(    7) = (   0.0000000   0.1457891   0.3845156), wk =   0.0185185
        k(    8) = (   0.0000000   0.1457891  -0.5767734), wk =   0.0185185
        k(    9) = (   0.0000000   0.2915782   0.0000000), wk =   0.0185185
        k(   10) = (   0.0000000   0.2915782   0.1922578), wk =   0.0185185
        k(   11) = (   0.0000000   0.2915782   0.3845156), wk =   0.0185185
        k(   12) = (   0.0000000   0.2915782  -0.5767734), wk =   0.0185185
        k(   13) = (   0.0000000  -0.4373674   0.0000000), wk =   0.0092593
        k(   14) = (   0.0000000  -0.4373674   0.1922578), wk =   0.0185185
        k(   15) = (   0.0000000  -0.4373674   0.3845156), wk =   0.0185185
        k(   16) = (   0.0000000  -0.4373674  -0.5767734), wk =   0.0092593
        k(   17) = (   0.1666667   0.0000000   0.0805232), wk =   0.0185185
        k(   18) = (   0.1666667   0.0000000   0.2727810), wk =   0.0185185
        k(   19) = (   0.1666667   0.0000000   0.4650387), wk =   0.0185185
        k(   20) = (   0.1666667   0.0000000  -0.4962502), wk =   0.0185185
        k(   21) = (   0.1666667   0.0000000  -0.3039924), wk =   0.0185185
        k(   22) = (   0.1666667   0.0000000  -0.1117346), wk =   0.0185185
        k(   23) = (   0.1666667   0.1457891   0.0805232), wk =   0.0185185
        k(   24) = (   0.1666667   0.1457891   0.2727810), wk =   0.0185185
        k(   25) = (   0.1666667   0.1457891   0.4650387), wk =   0.0185185
        k(   26) = (   0.1666667   0.1457891  -0.4962502), wk =   0.0185185
        k(   27) = (   0.1666667   0.1457891  -0.3039924), wk =   0.0185185
        k(   28) = (   0.1666667   0.1457891  -0.1117346), wk =   0.0185185
        k(   29) = (   0.1666667   0.2915782   0.0805232), wk =   0.0185185
        k(   30) = (   0.1666667   0.2915782   0.2727810), wk =   0.0185185
        k(   31) = (   0.1666667   0.2915782   0.4650387), wk =   0.0185185
        k(   32) = (   0.1666667   0.2915782  -0.4962502), wk =   0.0185185
        k(   33) = (   0.1666667   0.2915782  -0.3039924), wk =   0.0185185
        k(   34) = (   0.1666667   0.2915782  -0.1117346), wk =   0.0185185
        k(   35) = (   0.1666667  -0.4373674   0.0805232), wk =   0.0185185
        k(   36) = (   0.1666667  -0.4373674   0.2727810), wk =   0.0185185
        k(   37) = (   0.1666667  -0.4373674   0.4650387), wk =   0.0185185
        k(   38) = (   0.1666667  -0.4373674  -0.4962502), wk =   0.0185185
        k(   39) = (   0.1666667  -0.4373674  -0.3039924), wk =   0.0185185
        k(   40) = (   0.1666667  -0.4373674  -0.1117346), wk =   0.0185185
        k(   41) = (   0.3333333   0.0000000   0.1610463), wk =   0.0185185
        k(   42) = (   0.3333333   0.0000000   0.3533041), wk =   0.0185185
        k(   43) = (   0.3333333   0.0000000   0.5455619), wk =   0.0185185
        k(   44) = (   0.3333333   0.0000000  -0.4157270), wk =   0.0185185
        k(   45) = (   0.3333333   0.0000000  -0.2234692), wk =   0.0185185
        k(   46) = (   0.3333333   0.0000000  -0.0312115), wk =   0.0185185
        k(   47) = (   0.3333333   0.1457891   0.1610463), wk =   0.0185185
        k(   48) = (   0.3333333   0.1457891   0.3533041), wk =   0.0185185
        k(   49) = (   0.3333333   0.1457891   0.5455619), wk =   0.0185185
        k(   50) = (   0.3333333   0.1457891  -0.4157270), wk =   0.0185185
        k(   51) = (   0.3333333   0.1457891  -0.2234692), wk =   0.0185185
        k(   52) = (   0.3333333   0.1457891  -0.0312115), wk =   0.0185185
        k(   53) = (   0.3333333   0.2915782   0.1610463), wk =   0.0185185
        k(   54) = (   0.3333333   0.2915782   0.3533041), wk =   0.0185185
        k(   55) = (   0.3333333   0.2915782   0.5455619), wk =   0.0185185
        k(   56) = (   0.3333333   0.2915782  -0.4157270), wk =   0.0185185
        k(   57) = (   0.3333333   0.2915782  -0.2234692), wk =   0.0185185
        k(   58) = (   0.3333333   0.2915782  -0.0312115), wk =   0.0185185
        k(   59) = (   0.3333333  -0.4373674   0.1610463), wk =   0.0185185
        k(   60) = (   0.3333333  -0.4373674   0.3533041), wk =   0.0185185
        k(   61) = (   0.3333333  -0.4373674   0.5455619), wk =   0.0185185
        k(   62) = (   0.3333333  -0.4373674  -0.4157270), wk =   0.0185185
        k(   63) = (   0.3333333  -0.4373674  -0.2234692), wk =   0.0185185
        k(   64) = (   0.3333333  -0.4373674  -0.0312115), wk =   0.0185185
        k(   65) = (  -0.5000000   0.0000000  -0.2415695), wk =   0.0092593
        k(   66) = (  -0.5000000   0.0000000  -0.0493117), wk =   0.0185185
        k(   67) = (  -0.5000000   0.0000000   0.1429461), wk =   0.0185185
        k(   68) = (  -0.5000000   0.0000000  -0.8183429), wk =   0.0092593
        k(   69) = (  -0.5000000   0.1457891  -0.2415695), wk =   0.0185185
        k(   70) = (  -0.5000000   0.1457891  -0.0493117), wk =   0.0185185
        k(   71) = (  -0.5000000   0.1457891   0.1429461), wk =   0.0185185
        k(   72) = (  -0.5000000   0.1457891  -0.8183429), wk =   0.0185185
        k(   73) = (  -0.5000000   0.2915782  -0.2415695), wk =   0.0185185
        k(   74) = (  -0.5000000   0.2915782  -0.0493117), wk =   0.0185185
        k(   75) = (  -0.5000000   0.2915782   0.1429461), wk =   0.0185185
        k(   76) = (  -0.5000000   0.2915782  -0.8183429), wk =   0.0185185
        k(   77) = (  -0.5000000  -0.4373674  -0.2415695), wk =   0.0092593
        k(   78) = (  -0.5000000  -0.4373674  -0.0493117), wk =   0.0185185
        k(   79) = (  -0.5000000  -0.4373674   0.1429461), wk =   0.0185185
        k(   80) = (  -0.5000000  -0.4373674  -0.8183429), wk =   0.0092593
        k(   81) = (   0.0000000   0.1457891  -0.1922578), wk =   0.0185185
        k(   82) = (   0.0000000   0.1457891  -0.3845156), wk =   0.0185185
        k(   83) = (   0.0000000   0.2915782  -0.1922578), wk =   0.0185185
        k(   84) = (   0.0000000   0.2915782  -0.3845156), wk =   0.0185185
        k(   85) = (  -0.1666667   0.1457891  -0.0805232), wk =   0.0185185
        k(   86) = (  -0.1666667   0.1457891  -0.2727810), wk =   0.0185185
        k(   87) = (  -0.1666667   0.1457891  -0.4650387), wk =   0.0185185
        k(   88) = (  -0.1666667   0.1457891   0.4962502), wk =   0.0185185
        k(   89) = (  -0.1666667   0.1457891   0.3039924), wk =   0.0185185
        k(   90) = (  -0.1666667   0.1457891   0.1117346), wk =   0.0185185
        k(   91) = (  -0.1666667   0.2915782  -0.0805232), wk =   0.0185185
        k(   92) = (  -0.1666667   0.2915782  -0.2727810), wk =   0.0185185
        k(   93) = (  -0.1666667   0.2915782  -0.4650387), wk =   0.0185185
        k(   94) = (  -0.1666667   0.2915782   0.4962502), wk =   0.0185185
        k(   95) = (  -0.1666667   0.2915782   0.3039924), wk =   0.0185185
        k(   96) = (  -0.1666667   0.2915782   0.1117346), wk =   0.0185185
        k(   97) = (  -0.3333333   0.1457891  -0.1610463), wk =   0.0185185
        k(   98) = (  -0.3333333   0.1457891  -0.3533041), wk =   0.0185185
        k(   99) = (  -0.3333333   0.1457891  -0.5455619), wk =   0.0185185
        k(  100) = (  -0.3333333   0.1457891   0.4157270), wk =   0.0185185
        k(  101) = (  -0.3333333   0.1457891   0.2234692), wk =   0.0185185
        k(  102) = (  -0.3333333   0.1457891   0.0312115), wk =   0.0185185
        k(  103) = (  -0.3333333   0.2915782  -0.1610463), wk =   0.0185185
        k(  104) = (  -0.3333333   0.2915782  -0.3533041), wk =   0.0185185
        k(  105) = (  -0.3333333   0.2915782  -0.5455619), wk =   0.0185185
        k(  106) = (  -0.3333333   0.2915782   0.4157270), wk =   0.0185185
        k(  107) = (  -0.3333333   0.2915782   0.2234692), wk =   0.0185185
        k(  108) = (  -0.3333333   0.2915782   0.0312115), wk =   0.0185185
        k(  109) = (   0.5000000   0.1457891   0.0493117), wk =   0.0185185
        k(  110) = (   0.5000000   0.1457891  -0.1429461), wk =   0.0185185
        k(  111) = (   0.5000000   0.2915782   0.0493117), wk =   0.0185185
        k(  112) = (   0.5000000   0.2915782  -0.1429461), wk =   0.0185185

                       cryst. coord.
        k(    1) = (   0.0000000   0.0000000   0.0000000), wk =   0.0092593
        k(    2) = (   0.0000000   0.0000000   0.1666667), wk =   0.0185185
        k(    3) = (   0.0000000   0.0000000   0.3333333), wk =   0.0185185
        k(    4) = (   0.0000000   0.0000000  -0.5000000), wk =   0.0092593
        k(    5) = (   0.0000000   0.1666667   0.0000000), wk =   0.0185185
        k(    6) = (   0.0000000   0.1666667   0.1666667), wk =   0.0185185
        k(    7) = (   0.0000000   0.1666667   0.3333333), wk =   0.0185185
        k(    8) = (   0.0000000   0.1666667  -0.5000000), wk =   0.0185185
        k(    9) = (   0.0000000   0.3333333   0.0000000), wk =   0.0185185
        k(   10) = (   0.0000000   0.3333333   0.1666667), wk =   0.0185185
        k(   11) = (   0.0000000   0.3333333   0.3333333), wk =   0.0185185
        k(   12) = (   0.0000000   0.3333333  -0.5000000), wk =   0.0185185
        k(   13) = (   0.0000000  -0.5000000   0.0000000), wk =   0.0092593
        k(   14) = (   0.0000000  -0.5000000   0.1666667), wk =   0.0185185
        k(   15) = (   0.0000000  -0.5000000   0.3333333), wk =   0.0185185
        k(   16) = (   0.0000000  -0.5000000  -0.5000000), wk =   0.0092593
        k(   17) = (   0.1666667   0.0000000  -0.0000000), wk =   0.0185185
        k(   18) = (   0.1666667   0.0000000   0.1666667), wk =   0.0185185
        k(   19) = (   0.1666667   0.0000000   0.3333333), wk =   0.0185185
        k(   20) = (   0.1666667   0.0000000  -0.5000000), wk =   0.0185185
        k(   21) = (   0.1666667   0.0000000  -0.3333333), wk =   0.0185185
        k(   22) = (   0.1666667   0.0000000  -0.1666667), wk =   0.0185185
        k(   23) = (   0.1666667   0.1666667  -0.0000000), wk =   0.0185185
        k(   24) = (   0.1666667   0.1666667   0.1666667), wk =   0.0185185
        k(   25) = (   0.1666667   0.1666667   0.3333333), wk =   0.0185185
        k(   26) = (   0.1666667   0.1666667  -0.5000000), wk =   0.0185185
        k(   27) = (   0.1666667   0.1666667  -0.3333333), wk =   0.0185185
        k(   28) = (   0.1666667   0.1666667  -0.1666667), wk =   0.0185185
        k(   29) = (   0.1666667   0.3333333  -0.0000000), wk =   0.0185185
        k(   30) = (   0.1666667   0.3333333   0.1666667), wk =   0.0185185
        k(   31) = (   0.1666667   0.3333333   0.3333333), wk =   0.0185185
        k(   32) = (   0.1666667   0.3333333  -0.5000000), wk =   0.0185185
        k(   33) = (   0.1666667   0.3333333  -0.3333333), wk =   0.0185185
        k(   34) = (   0.1666667   0.3333333  -0.1666667), wk =   0.0185185
        k(   35) = (   0.1666667  -0.5000000  -0.0000000), wk =   0.0185185
        k(   36) = (   0.1666667  -0.5000000   0.1666667), wk =   0.0185185
        k(   37) = (   0.1666667  -0.5000000   0.3333333), wk =   0.0185185
        k(   38) = (   0.1666667  -0.5000000  -0.5000000), wk =   0.0185185
        k(   39) = (   0.1666667  -0.5000000  -0.3333333), wk =   0.0185185
        k(   40) = (   0.1666667  -0.5000000  -0.1666667), wk =   0.0185185
        k(   41) = (   0.3333333   0.0000000  -0.0000000), wk =   0.0185185
        k(   42) = (   0.3333333   0.0000000   0.1666667), wk =   0.0185185
        k(   43) = (   0.3333333   0.0000000   0.3333333), wk =   0.0185185
        k(   44) = (   0.3333333   0.0000000  -0.5000000), wk =   0.0185185
        k(   45) = (   0.3333333   0.0000000  -0.3333333), wk =   0.0185185
        k(   46) = (   0.3333333   0.0000000  -0.1666667), wk =   0.0185185
        k(   47) = (   0.3333333   0.1666667  -0.0000000), wk =   0.0185185
        k(   48) = (   0.3333333   0.1666667   0.1666667), wk =   0.0185185
        k(   49) = (   0.3333333   0.1666667   0.3333333), wk =   0.0185185
        k(   50) = (   0.3333333   0.1666667  -0.5000000), wk =   0.0185185
        k(   51) = (   0.3333333   0.1666667  -0.3333333), wk =   0.0185185
        k(   52) = (   0.3333333   0.1666667  -0.1666667), wk =   0.0185185
        k(   53) = (   0.3333333   0.3333333  -0.0000000), wk =   0.0185185
        k(   54) = (   0.3333333   0.3333333   0.1666667), wk =   0.0185185
        k(   55) = (   0.3333333   0.3333333   0.3333333), wk =   0.0185185
        k(   56) = (   0.3333333   0.3333333  -0.5000000), wk =   0.0185185
        k(   57) = (   0.3333333   0.3333333  -0.3333333), wk =   0.0185185
        k(   58) = (   0.3333333   0.3333333  -0.1666667), wk =   0.0185185
        k(   59) = (   0.3333333  -0.5000000  -0.0000000), wk =   0.0185185
        k(   60) = (   0.3333333  -0.5000000   0.1666667), wk =   0.0185185
        k(   61) = (   0.3333333  -0.5000000   0.3333333), wk =   0.0185185
        k(   62) = (   0.3333333  -0.5000000  -0.5000000), wk =   0.0185185
        k(   63) = (   0.3333333  -0.5000000  -0.3333333), wk =   0.0185185
        k(   64) = (   0.3333333  -0.5000000  -0.1666667), wk =   0.0185185
        k(   65) = (  -0.5000000   0.0000000   0.0000000), wk =   0.0092593
        k(   66) = (  -0.5000000   0.0000000   0.1666667), wk =   0.0185185
        k(   67) = (  -0.5000000   0.0000000   0.3333333), wk =   0.0185185
        k(   68) = (  -0.5000000   0.0000000  -0.5000000), wk =   0.0092593
        k(   69) = (  -0.5000000   0.1666667   0.0000000), wk =   0.0185185
        k(   70) = (  -0.5000000   0.1666667   0.1666667), wk =   0.0185185
        k(   71) = (  -0.5000000   0.1666667   0.3333333), wk =   0.0185185
        k(   72) = (  -0.5000000   0.1666667  -0.5000000), wk =   0.0185185
        k(   73) = (  -0.5000000   0.3333333   0.0000000), wk =   0.0185185
        k(   74) = (  -0.5000000   0.3333333   0.1666667), wk =   0.0185185
        k(   75) = (  -0.5000000   0.3333333   0.3333333), wk =   0.0185185
        k(   76) = (  -0.5000000   0.3333333  -0.5000000), wk =   0.0185185
        k(   77) = (  -0.5000000  -0.5000000   0.0000000), wk =   0.0092593
        k(   78) = (  -0.5000000  -0.5000000   0.1666667), wk =   0.0185185
        k(   79) = (  -0.5000000  -0.5000000   0.3333333), wk =   0.0185185
        k(   80) = (  -0.5000000  -0.5000000  -0.5000000), wk =   0.0092593
        k(   81) = (   0.0000000   0.1666667  -0.1666667), wk =   0.0185185
        k(   82) = (   0.0000000   0.1666667  -0.3333333), wk =   0.0185185
        k(   83) = (   0.0000000   0.3333333  -0.1666667), wk =   0.0185185
        k(   84) = (   0.0000000   0.3333333  -0.3333333), wk =   0.0185185
        k(   85) = (  -0.1666667   0.1666667   0.0000000), wk =   0.0185185
        k(   86) = (  -0.1666667   0.1666667  -0.1666667), wk =   0.0185185
        k(   87) = (  -0.1666667   0.1666667  -0.3333333), wk =   0.0185185
        k(   88) = (  -0.1666667   0.1666667   0.5000000), wk =   0.0185185
        k(   89) = (  -0.1666667   0.1666667   0.3333333), wk =   0.0185185
        k(   90) = (  -0.1666667   0.1666667   0.1666667), wk =   0.0185185
        k(   91) = (  -0.1666667   0.3333333   0.0000000), wk =   0.0185185
        k(   92) = (  -0.1666667   0.3333333  -0.1666667), wk =   0.0185185
        k(   93) = (  -0.1666667   0.3333333  -0.3333333), wk =   0.0185185
        k(   94) = (  -0.1666667   0.3333333   0.5000000), wk =   0.0185185
        k(   95) = (  -0.1666667   0.3333333   0.3333333), wk =   0.0185185
        k(   96) = (  -0.1666667   0.3333333   0.1666667), wk =   0.0185185
        k(   97) = (  -0.3333333   0.1666667   0.0000000), wk =   0.0185185
        k(   98) = (  -0.3333333   0.1666667  -0.1666667), wk =   0.0185185
        k(   99) = (  -0.3333333   0.1666667  -0.3333333), wk =   0.0185185
        k(  100) = (  -0.3333333   0.1666667   0.5000000), wk =   0.0185185
        k(  101) = (  -0.3333333   0.1666667   0.3333333), wk =   0.0185185
        k(  102) = (  -0.3333333   0.1666667   0.1666667), wk =   0.0185185
        k(  103) = (  -0.3333333   0.3333333   0.0000000), wk =   0.0185185
        k(  104) = (  -0.3333333   0.3333333  -0.1666667), wk =   0.0185185
        k(  105) = (  -0.3333333   0.3333333  -0.3333333), wk =   0.0185185
        k(  106) = (  -0.3333333   0.3333333   0.5000000), wk =   0.0185185
        k(  107) = (  -0.3333333   0.3333333   0.3333333), wk =   0.0185185
        k(  108) = (  -0.3333333   0.3333333   0.1666667), wk =   0.0185185
        k(  109) = (   0.5000000   0.1666667  -0.1666667), wk =   0.0185185
        k(  110) = (   0.5000000   0.1666667  -0.3333333), wk =   0.0185185
        k(  111) = (   0.5000000   0.3333333  -0.1666667), wk =   0.0185185
        k(  112) = (   0.5000000   0.3333333  -0.3333333), wk =   0.0185185

     Dense  grid:   476443 G-vectors     FFT dimensions: ( 100, 120,  96)

     Dynamical RAM for                 wfc:      12.62 MB

     Dynamical RAM for     wfc (w. buffer):      12.62 MB

     Dynamical RAM for           str. fact:       0.81 MB

     Dynamical RAM for           local pot:       0.00 MB

     Dynamical RAM for          nlocal pot:      15.04 MB

     Dynamical RAM for                qrad:       6.42 MB

     Dynamical RAM for          rho,v,vnew:       1.43 MB

     Dynamical RAM for           G-vectors:       0.86 MB

     Dynamical RAM for          h,s,v(r/c):       1.83 MB

     Dynamical RAM for          <psi|beta>:       4.55 MB

     Dynamical RAM for                 psi:      25.24 MB

     Dynamical RAM for                hpsi:      25.24 MB

     Dynamical RAM for      wfcinit/wfcrot:      30.96 MB

     Estimated static dynamical RAM per process >      39.56 MB

     Estimated max dynamical RAM per process >      96.42 MB

     Estimated total dynamical RAM >       3.39 GB

     The potential is recalculated from file :
     ./out/ncso.save/charge-density

     Starting wfcs are  248 randomized atomic wfcs +  252 random wfcs

     Band Structure Calculation
     Davidson diagonalization with overlap

     Computing kpt #:     1  of   112
     total cpu time spent up to now is       18.3 secs

     Computing kpt #:     2  of   112
     total cpu time spent up to now is       35.1 secs

     Computing kpt #:     3  of   112
     total cpu time spent up to now is       49.6 secs

     Computing kpt #:     4  of   112
     total cpu time spent up to now is       64.2 secs

     Computing kpt #:     5  of   112
     total cpu time spent up to now is       81.3 secs

     Computing kpt #:     6  of   112
     total cpu time spent up to now is       98.0 secs

     Computing kpt #:     7  of   112
     total cpu time spent up to now is      114.8 secs

     Computing kpt #:     8  of   112
     total cpu time spent up to now is      129.6 secs

     Computing kpt #:     9  of   112
     total cpu time spent up to now is      146.5 secs

     Computing kpt #:    10  of   112
     total cpu time spent up to now is      161.1 secs

     Computing kpt #:    11  of   112
     total cpu time spent up to now is      175.7 secs

     Computing kpt #:    12  of   112
     total cpu time spent up to now is      190.9 secs

     Computing kpt #:    13  of   112
     total cpu time spent up to now is      205.9 secs

     Computing kpt #:    14  of   112
     total cpu time spent up to now is      222.6 secs

     Computing kpt #:    15  of   112
     total cpu time spent up to now is      237.3 secs

     Computing kpt #:    16  of   112
     total cpu time spent up to now is      252.4 secs

     Computing kpt #:    17  of   112
     total cpu time spent up to now is      267.4 secs

     Computing kpt #:    18  of   112
     total cpu time spent up to now is      283.9 secs

     Computing kpt #:    19  of   112
     total cpu time spent up to now is      301.6 secs

     Computing kpt #:    20  of   112
     total cpu time spent up to now is      318.1 secs

     Computing kpt #:    21  of   112
     total cpu time spent up to now is      333.1 secs

     Computing kpt #:    22  of   112
     total cpu time spent up to now is      348.4 secs

     Computing kpt #:    23  of   112
     total cpu time spent up to now is      365.1 secs

     Computing kpt #:    24  of   112
     total cpu time spent up to now is      379.8 secs

     Computing kpt #:    25  of   112
     total cpu time spent up to now is      394.6 secs

     Computing kpt #:    26  of   112
     total cpu time spent up to now is      411.8 secs

     Computing kpt #:    27  of   112
     total cpu time spent up to now is      426.9 secs

     Computing kpt #:    28  of   112
     total cpu time spent up to now is      444.3 secs

     Computing kpt #:    29  of   112
     total cpu time spent up to now is      461.2 secs

     Computing kpt #:    30  of   112
     total cpu time spent up to now is      477.9 secs

     Computing kpt #:    31  of   112
     total cpu time spent up to now is      495.2 secs

     Computing kpt #:    32  of   112
     total cpu time spent up to now is      512.0 secs

     Computing kpt #:    33  of   112
     total cpu time spent up to now is      529.9 secs

     Computing kpt #:    34  of   112
     total cpu time spent up to now is      546.6 secs

     Computing kpt #:    35  of   112
     total cpu time spent up to now is      560.9 secs

     Computing kpt #:    36  of   112
     total cpu time spent up to now is      575.6 secs

     Computing kpt #:    37  of   112
     total cpu time spent up to now is      590.9 secs

     Computing kpt #:    38  of   112
     total cpu time spent up to now is      605.6 secs

     Computing kpt #:    39  of   112
     total cpu time spent up to now is      622.4 secs

     Computing kpt #:    40  of   112
     total cpu time spent up to now is      639.2 secs

     Computing kpt #:    41  of   112
     total cpu time spent up to now is      653.8 secs

     Computing kpt #:    42  of   112
     total cpu time spent up to now is      668.4 secs

     Computing kpt #:    43  of   112
     total cpu time spent up to now is      685.6 secs

     Computing kpt #:    44  of   112
     total cpu time spent up to now is      703.0 secs

     Computing kpt #:    45  of   112
     total cpu time spent up to now is      720.0 secs

     Computing kpt #:    46  of   112
     total cpu time spent up to now is      734.7 secs

     Computing kpt #:    47  of   112
     total cpu time spent up to now is      752.6 secs

     Computing kpt #:    48  of   112
     total cpu time spent up to now is      769.7 secs

     Computing kpt #:    49  of   112
     total cpu time spent up to now is      786.7 secs

     Computing kpt #:    50  of   112
     total cpu time spent up to now is      802.0 secs

     Computing kpt #:    51  of   112
     total cpu time spent up to now is      819.2 secs

     Computing kpt #:    52  of   112
     total cpu time spent up to now is      834.2 secs

     Computing kpt #:    53  of   112
     total cpu time spent up to now is      848.5 secs

     Computing kpt #:    54  of   112
     total cpu time spent up to now is      863.6 secs

     Computing kpt #:    55  of   112
     total cpu time spent up to now is      880.5 secs

     Computing kpt #:    56  of   112
     total cpu time spent up to now is      895.7 secs

     Computing kpt #:    57  of   112
     total cpu time spent up to now is      910.9 secs

     Computing kpt #:    58  of   112
     total cpu time spent up to now is      925.9 secs

     Computing kpt #:    59  of   112
     total cpu time spent up to now is      940.8 secs

     Computing kpt #:    60  of   112
     total cpu time spent up to now is      958.0 secs

     Computing kpt #:    61  of   112
     total cpu time spent up to now is      972.6 secs

     Computing kpt #:    62  of   112
     total cpu time spent up to now is      987.3 secs

     Computing kpt #:    63  of   112
     total cpu time spent up to now is     1001.9 secs

     Computing kpt #:    64  of   112
     total cpu time spent up to now is     1016.3 secs

     Computing kpt #:    65  of   112
     total cpu time spent up to now is     1033.0 secs

     Computing kpt #:    66  of   112
     total cpu time spent up to now is     1048.0 secs

     Computing kpt #:    67  of   112
     total cpu time spent up to now is     1064.8 secs

     Computing kpt #:    68  of   112
     total cpu time spent up to now is     1081.6 secs

     Computing kpt #:    69  of   112
     total cpu time spent up to now is     1096.6 secs

     Computing kpt #:    70  of   112
     total cpu time spent up to now is     1114.3 secs

     Computing kpt #:    71  of   112
     total cpu time spent up to now is     1129.4 secs

     Computing kpt #:    72  of   112
     total cpu time spent up to now is     1144.0 secs

     Computing kpt #:    73  of   112
     total cpu time spent up to now is     1160.7 secs

     Computing kpt #:    74  of   112
     total cpu time spent up to now is     1175.6 secs

     Computing kpt #:    75  of   112
     total cpu time spent up to now is     1190.8 secs

     Computing kpt #:    76  of   112
     total cpu time spent up to now is     1205.8 secs

     Computing kpt #:    77  of   112
     total cpu time spent up to now is     1223.1 secs

     Computing kpt #:    78  of   112
     total cpu time spent up to now is     1239.9 secs

     Computing kpt #:    79  of   112
     total cpu time spent up to now is     1254.9 secs

     Computing kpt #:    80  of   112
     total cpu time spent up to now is     1269.8 secs

     Computing kpt #:    81  of   112
     total cpu time spent up to now is     1286.7 secs

     Computing kpt #:    82  of   112
     total cpu time spent up to now is     1303.8 secs

     Computing kpt #:    83  of   112
     total cpu time spent up to now is     1318.9 secs

     Computing kpt #:    84  of   112
     total cpu time spent up to now is     1335.7 secs

     Computing kpt #:    85  of   112
     total cpu time spent up to now is     1352.9 secs

     Computing kpt #:    86  of   112
     total cpu time spent up to now is     1367.8 secs

     Computing kpt #:    87  of   112
     total cpu time spent up to now is     1383.0 secs

     Computing kpt #:    88  of   112
     total cpu time spent up to now is     1397.9 secs

     Computing kpt #:    89  of   112
     total cpu time spent up to now is     1412.6 secs

     Computing kpt #:    90  of   112
     total cpu time spent up to now is     1429.5 secs

     Computing kpt #:    91  of   112
     total cpu time spent up to now is     1446.3 secs

     Computing kpt #:    92  of   112
     total cpu time spent up to now is     1463.3 secs

     Computing kpt #:    93  of   112
     total cpu time spent up to now is     1480.5 secs

     Computing kpt #:    94  of   112
     total cpu time spent up to now is     1497.8 secs

     Computing kpt #:    95  of   112
     total cpu time spent up to now is     1514.6 secs

     Computing kpt #:    96  of   112
     total cpu time spent up to now is     1531.6 secs

     Computing kpt #:    97  of   112
     total cpu time spent up to now is     1548.5 secs

     Computing kpt #:    98  of   112
     total cpu time spent up to now is     1563.6 secs

     Computing kpt #:    99  of   112
     total cpu time spent up to now is     1581.0 secs

     Computing kpt #:   100  of   112
     total cpu time spent up to now is     1597.9 secs

     Computing kpt #:   101  of   112
     total cpu time spent up to now is     1612.7 secs

     Computing kpt #:   102  of   112
     total cpu time spent up to now is     1627.6 secs

     Computing kpt #:   103  of   112
     total cpu time spent up to now is     1642.8 secs

     Computing kpt #:   104  of   112
     total cpu time spent up to now is     1659.8 secs

     Computing kpt #:   105  of   112
     total cpu time spent up to now is     1677.1 secs

     Computing kpt #:   106  of   112
     total cpu time spent up to now is     1694.4 secs

     Computing kpt #:   107  of   112
     total cpu time spent up to now is     1709.3 secs

     Computing kpt #:   108  of   112
     total cpu time spent up to now is     1724.1 secs

     Computing kpt #:   109  of   112
     total cpu time spent up to now is     1741.2 secs

     Computing kpt #:   110  of   112
     total cpu time spent up to now is     1756.1 secs

     Computing kpt #:   111  of   112
     total cpu time spent up to now is     1770.9 secs

     Computing kpt #:   112  of   112
     total cpu time spent up to now is     1788.3 secs

     ethr =  5.00E-06,  avg # of iterations = 20.6

     total cpu time spent up to now is     1788.3 secs

     End of band structure calculation

          k = 0.0000 0.0000 0.0000 ( 59589 PWs)   bands (ev):

   -85.5963 -85.5837 -85.2977 -85.2975 -85.2892 -85.2890 -49.1137 -49.1017
   -49.0046 -48.9925 -48.9316 -48.9193 -48.9138 -48.9137 -48.9058 -48.9057
   -48.7020 -48.7009 -48.6937 -48.6926 -48.5629 -48.5608 -48.5546 -48.5524
   -42.0895 -42.0895 -42.0895 -42.0895 -42.0803 -42.0802 -42.0802 -42.0802
   -42.0352 -42.0352 -42.0350 -42.0350 -42.0311 -42.0311 -42.0309 -42.0309
   -41.9476 -41.9476 -41.9476 -41.9475 -41.9318 -41.9318 -41.9317 -41.9317
   -41.9003 -41.9003 -41.9001 -41.9001 -41.8853 -41.8853 -41.8852 -41.8852
   -41.8777 -41.8777 -41.8777 -41.8777 -41.8350 -41.8350 -41.8349 -41.8349
   -40.8817 -40.8811 -40.8808 -40.8802 -13.8337 -13.7602 -13.7376 -13.7339
   -13.7292 -13.6280 -13.6010 -13.4468 -13.2800 -13.2528 -13.2390 -13.2252
   -13.1759 -13.0394 -13.0187 -12.9412 -12.8144 -12.8079 -12.7625 -12.7456
   -11.1138 -10.8859 -10.8646 -10.8444 -10.8368 -10.7330 -10.7251 -10.7204
   -10.6720 -10.5878 -10.5574 -10.5245 -10.5116 -10.5086 -10.4590 -10.4209
    -3.8915  -3.6945  -3.6249  -3.4804  -3.4607  -3.3467  -3.2058  -3.0833
     0.4226   0.6093   0.7454   0.8758   0.9339   0.9475   1.0512   1.0717
     1.0966   1.2943   1.3979   1.4831   1.5103   1.5212   1.5357   1.5371
     1.7020   1.7384   1.9034   1.9387   2.0005   2.1490   2.1809   2.4033
     3.3937   3.4882   3.6074   3.6893   3.6905   3.7444   3.8315   3.8342
     3.9046   3.9888   4.0293   4.1697   4.1770   4.3080   4.3209   4.3722
     4.4016   4.4623   4.5184   4.5362   4.5983   4.7019   4.8084   4.8848
     4.9374   4.9820   5.1633   5.1892   5.2478   5.2711   5.2919   5.3349
     5.4223   5.5152   5.6374   5.7442   5.7584   5.7990   5.8158   5.8535
     5.9070   5.9273   5.9426   5.9982   6.0422   6.1738   6.2782   6.6767
     8.0100   8.1260   8.2359   8.2597   8.2965   8.3204   8.3787   8.3968
     8.4319   8.4691   8.4844   8.4915   8.5226   8.5809   8.6033   8.6352
     8.6725   8.7677   8.8091   8.9625   8.9674   9.0206   9.1441   9.2125
     9.2372   9.3907   9.4160   9.4381   9.4417   9.5614  11.5422  11.7818
    11.8220  11.8814  11.9908  12.0126  12.2450  12.3712  12.4044  12.5119
    12.5806  12.6053  12.6175  12.9380  12.9607  13.0068  13.1234  13.4985
    13.6088  13.7848  14.1814  14.2010  14.3853  14.4019  14.6310  15.6776
    16.0551  16.3657  16.3856  16.6063  16.6877  17.1359  17.1364  17.2746
    17.4329  17.4389  17.4678  17.5099  17.5400  18.0202  18.0678  18.1608
    18.3471  18.6603  18.6677  18.7619  18.8983  18.9250  19.0680  19.0711
    19.1003  19.1341  19.4537  19.5378  19.6081  19.6544  20.0178  20.0570
    20.0683  20.2223  20.4562  20.4622  20.6259  20.8226  20.8447  20.9514
    21.1814  21.1946  21.2545  21.4756  21.4890  21.5812  21.6746  21.7422
    21.7612  22.0187  22.0464  22.1314  22.1842  22.3859  22.4158  22.4399
    22.5632  22.7996  22.9527  23.1798  23.2802  23.3100  23.3355  23.4339
    23.7260  23.9006  24.1330  24.2167  24.2320  24.2717  24.3313  24.4948
    24.5666  24.7772  24.8182  24.8187  25.1355  25.1374  25.5088  25.5268
    25.7166  25.7641  26.0700  26.2367  26.3572  26.3720  26.4498  26.5507
    26.5583  26.6305  26.9316  26.9984  27.0095  27.2230  27.4197  27.5773
    27.7001  27.7904  27.8341  28.0145  28.1275  28.1299  28.1721  28.4548
    28.4750  28.5140  28.9564  29.0505  29.1033  29.1854  29.2795  29.4244
    29.4458  29.6915  29.9192  29.9454  29.9502  30.0135  30.1189  30.1640
    30.2808  30.3640  30.6839  30.7739  30.7943  31.0150  31.0745  31.0921
    31.5129  31.5793  31.6376  31.7425  31.8497  31.8550  31.9528  32.0291
    32.1037  32.1867  32.2976  32.3457  32.3896  32.4358  32.6107  32.7575
    32.7614  32.9922  33.0889  33.1741  33.3030  33.4246  33.4860  33.5221
    33.7688  33.7738  33.8977  33.9745  34.0449  34.1112  34.1776  34.2571
    34.3177  34.4455  34.6597  34.6874  34.7229  34.7716  34.9884  35.0272
    35.2086  35.2393  35.2472  35.3865  35.4251  35.5855  35.6256  35.7160
    35.8593  35.9712  36.0986  36.2004  36.2373  36.2734  36.3971  36.4030
    36.4837  36.5987  36.8599  36.8665  36.8692  36.9090  37.0100  37.0667
    37.1754  37.2552  37.5172  37.6146  37.6227  37.6466  37.7070  37.8563
    37.9244  38.1350  38.2596  38.3245  38.3751  38.4116  38.4453  38.4956
    38.5855  38.5998  38.8593  38.8745  38.8774  39.0709  39.2219  39.2551
    39.3454  39.3593  39.4607  39.5635  39.7008  39.7873  39.8937  39.9817
    40.0545  40.1640  40.2123  40.2609  40.2634  40.3072  40.6233  40.6591
    40.7117  40.7175  40.8266  40.8789  40.9820  40.9835  41.0497  41.0744
    41.1523  41.1888  41.3130  41.3302  41.3781  41.5413  41.6130  41.6599
    41.7132  41.8422  41.9698  42.0121  42.1350  42.1817  42.2837  42.3409
    42.5091  42.5818  42.6114  42.6680

     occupation numbers 
     1.0000   1.0000   1.0000   1.0000   1.0000   1.0000   1.0000   1.0000
     1.0000   1.0000   1.0000   1.0000   1.0000   1.0000   1.0000   1.0000
     1.0000   1.0000   1.0000   1.0000   1.0000   1.0000   1.0000   1.0000
     1.0000   1.0000   1.0000   1.0000   1.0000   1.0000   1.0000   1.0000
     1.0000   1.0000   1.0000   1.0000   1.0000   1.0000   1.0000   1.0000
     1.0000   1.0000   1.0000   1.0000   1.0000   1.0000   1.0000   1.0000
     1.0000   1.0000   1.0000   1.0000   1.0000   1.0000   1.0000   1.0000
     1.0000   1.0000   1.0000   1.0000   1.0000   1.0000   1.0000   1.0000
     1.0000   1.0000   1.0000   1.0000   1.0000   1.0000   1.0000   1.0000
     1.0000   1.0000   1.0000   1.0000   1.0000   1.0000   1.0000   1.0000
     1.0000   1.0000   1.0000   1.0000   1.0000   1.0000   1.0000   1.0000
     1.0000   1.0000   1.0000   1.0000   1.0000   1.0000   1.0000   1.0000
     1.0000   1.0000   1.0000   1.0000   1.0000   1.0000   1.0000   1.0000
     1.0000   1.0000   1.0000   1.0000   1.0000   1.0000   1.0000   1.0000
     1.0000   1.0000   1.0000   1.0000   1.0000   1.0000   1.0000   1.0000
     1.0000   1.0000   1.0000   1.0000   1.0000   1.0000   1.0000   1.0000
     1.0000   1.0000   1.0000   1.0000   1.0000   1.0000   1.0000   1.0000
     1.0000   1.0000   1.0000   1.0000   1.0000   1.0000   1.0000   1.0000
     1.0000   1.0000   1.0000   1.0000   1.0000   1.0000   1.0000   1.0000
     1.0000   1.0000   1.0000   1.0000   1.0000   1.0000   1.0000   1.0000
     1.0000   1.0000   1.0000   1.0000   1.0000   1.0000   1.0000   1.0000
     1.0000   1.0000   1.0000   1.0000   1.0000   1.0000   1.0000   1.0000
     1.0000   1.0000   1.0000   1.0000   1.0000   1.0000   1.0000   1.0000
     1.0000   1.0000   1.0000   1.0000   1.0000   1.0000   1.0000   1.0000
     1.0000   1.0000   1.0000   1.0000   1.0000   1.0000   1.0000   1.0000
     1.0000   1.0000   1.0000   1.0000   1.0000   0.9253   0.0000   0.0000
     0.0000   0.0000   0.0000   0.0000   0.0000   0.0000   0.0000   0.0000
     0.0000   0.0000   0.0000   0.0000   0.0000   0.0000   0.0000   0.0000
     0.0000   0.0000   0.0000   0.0000   0.0000   0.0000   0.0000   0.0000
     0.0000   0.0000   0.0000   0.0000   0.0000   0.0000   0.0000   0.0000
     0.0000   0.0000   0.0000   0.0000   0.0000   0.0000   0.0000   0.0000
     0.0000   0.0000   0.0000   0.0000   0.0000   0.0000   0.0000   0.0000
     0.0000   0.0000   0.0000   0.0000   0.0000   0.0000   0.0000   0.0000
     0.0000   0.0000   0.0000   0.0000   0.0000   0.0000   0.0000   0.0000
     0.0000   0.0000   0.0000   0.0000   0.0000   0.0000   0.0000   0.0000
     0.0000   0.0000   0.0000   0.0000   0.0000   0.0000   0.0000   0.0000
     0.0000   0.0000   0.0000   0.0000   0.0000   0.0000   0.0000   0.0000
     0.0000   0.0000   0.0000   0.0000   0.0000   0.0000   0.0000   0.0000
     0.0000   0.0000   0.0000   0.0000   0.0000   0.0000   0.0000   0.0000
     0.0000   0.0000   0.0000   0.0000   0.0000   0.0000   0.0000   0.0000
     0.0000   0.0000   0.0000   0.0000   0.0000   0.0000   0.0000   0.0000
     0.0000   0.0000   0.0000   0.0000   0.0000   0.0000   0.0000   0.0000
     0.0000   0.0000   0.0000   0.0000   0.0000   0.0000   0.0000   0.0000
     0.0000   0.0000   0.0000   0.0000   0.0000   0.0000   0.0000   0.0000
     0.0000   0.0000   0.0000   0.0000   0.0000   0.0000   0.0000   0.0000
     0.0000   0.0000   0.0000   0.0000   0.0000   0.0000   0.0000   0.0000
     0.0000   0.0000   0.0000   0.0000   0.0000   0.0000   0.0000   0.0000
     0.0000   0.0000   0.0000   0.0000   0.0000   0.0000   0.0000   0.0000
     0.0000   0.0000   0.0000   0.0000   0.0000   0.0000   0.0000   0.0000
     0.0000   0.0000   0.0000   0.0000   0.0000   0.0000   0.0000   0.0000
     0.0000   0.0000   0.0000   0.0000   0.0000   0.0000   0.0000   0.0000
     0.0000   0.0000   0.0000   0.0000   0.0000   0.0000   0.0000   0.0000
     0.0000   0.0000   0.0000   0.0000   0.0000   0.0000   0.0000   0.0000
     0.0000   0.0000   0.0000   0.0000   0.0000   0.0000   0.0000   0.0000
     0.0000   0.0000   0.0000   0.0000   0.0000   0.0000   0.0000   0.0000
     0.0000   0.0000   0.0000   0.0000   0.0000   0.0000   0.0000   0.0000
     0.0000   0.0000   0.0000   0.0000   0.0000   0.0000   0.0000   0.0000
     0.0000   0.0000   0.0000   0.0000   0.0000   0.0000   0.0000   0.0000
     0.0000   0.0000   0.0000   0.0000   0.0000   0.0000   0.0000   0.0000
     0.0000   0.0000   0.0000   0.0000   0.0000   0.0000   0.0000   0.0000
     0.0000   0.0000   0.0000   0.0000   0.0000   0.0000   0.0000   0.0000
     0.0000   0.0000   0.0000   0.0000   0.0000   0.0000   0.0000   0.0000
     0.0000   0.0000   0.0000   0.0000

          k = 0.0000 0.0000 0.1923 ( 59574 PWs)   bands (ev):

   -85.5963 -85.5837 -85.2977 -85.2975 -85.2892 -85.2890 -49.1137 -49.1017
   -49.0046 -48.9925 -48.9316 -48.9193 -48.9138 -48.9137 -48.9058 -48.9057
   -48.7020 -48.7009 -48.6937 -48.6926 -48.5629 -48.5608 -48.5546 -48.5524
   -42.0895 -42.0895 -42.0895 -42.0895 -42.0803 -42.0802 -42.0802 -42.0802
   -42.0352 -42.0352 -42.0350 -42.0350 -42.0311 -42.0311 -42.0309 -42.0309
   -41.9476 -41.9476 -41.9476 -41.9475 -41.9318 -41.9318 -41.9317 -41.9317
   -41.9003 -41.9003 -41.9001 -41.9001 -41.8853 -41.8853 -41.8852 -41.8852
   -41.8777 -41.8777 -41.8777 -41.8777 -41.8350 -41.8350 -41.8349 -41.8349
   -40.8817 -40.8811 -40.8808 -40.8802 -13.8244 -13.7552 -13.7451 -13.7255
   -13.7195 -13.6441 -13.6138 -13.4862 -13.2693 -13.2282 -13.2255 -13.1958
   -13.1782 -13.0327 -13.0097 -12.9368 -12.8389 -12.8270 -12.7696 -12.7589
   -11.0986 -10.8897 -10.8773 -10.8547 -10.8356 -10.7334 -10.7203 -10.7028
   -10.6677 -10.5788 -10.5525 -10.5232 -10.5210 -10.5037 -10.4631 -10.4295
    -3.8693  -3.6953  -3.6283  -3.5064  -3.4533  -3.3176  -3.2155  -3.1038
     0.4406   0.5820   0.7278   0.8775   0.8793   0.9180   0.9856   1.0819
     1.1725   1.2836   1.3764   1.4326   1.4432   1.4755   1.5487   1.6299
     1.6994   1.7240   1.9107   1.9569   2.0443   2.1673   2.2405   2.4402
     3.4448   3.5114   3.6539   3.6979   3.7308   3.7524   3.8264   3.8429
     3.8769   3.9885   4.0090   4.0948   4.2298   4.2383   4.3197   4.3888
     4.3992   4.4226   4.5601   4.6055   4.6749   4.7142   4.7885   4.8902
     4.9479   4.9654   5.0767   5.1315   5.1979   5.2674   5.3229   5.3682
     5.4908   5.5366   5.5846   5.7228   5.7258   5.7855   5.8418   5.8450
     5.9115   5.9272   6.0015   6.0292   6.0402   6.1447   6.2359   6.6111
     8.0215   8.1179   8.2418   8.2717   8.2968   8.3114   8.3798   8.3945
     8.4435   8.4715   8.4769   8.4894   8.5344   8.5742   8.6097   8.6361
     8.6794   8.7634   8.8433   8.9455   8.9745   9.0608   9.1457   9.2321
     9.2385   9.3538   9.3576   9.4301   9.4333   9.5512  11.5569  11.7555
    11.8288  11.9284  11.9596  12.0683  12.2151  12.3415  12.4220  12.4802
    12.5494  12.6355  12.6650  12.8717  12.9733  13.0212  13.1502  13.4320
    13.5728  13.6449  14.0877  14.2475  14.3775  14.4309  14.7338  15.7916
    16.0567  16.2662  16.3778  16.7277  16.7637  17.0527  17.2178  17.2246
    17.2906  17.3345  17.4605  17.6588  17.7268  18.0492  18.0924  18.1977
    18.4160  18.4505  18.4585  18.8863  18.9217  18.9740  19.0726  19.0980
    19.1438  19.1522  19.4076  19.4973  19.6301  19.8822  19.8914  19.9228
    20.1158  20.3399  20.4445  20.5706  20.6209  20.6928  20.8267  21.0445
    21.0661  21.1944  21.2389  21.3264  21.4457  21.5516  21.7399  21.7443
    21.9113  22.0096  22.0800  22.1711  22.2149  22.2805  22.3399  22.5274
    22.6243  22.7859  22.9418  23.1974  23.2078  23.3455  23.3623  23.4468
    23.6007  23.8673  24.0439  24.0667  24.2220  24.3066  24.4776  24.5103
    24.6446  24.7174  24.8053  24.8938  24.9403  25.3657  25.5033  25.6464
    25.8111  25.8368  26.0122  26.1495  26.3228  26.3415  26.4437  26.4660
    26.5873  26.5908  26.8374  26.9143  27.1515  27.1699  27.4391  27.5015
    27.6461  27.7202  27.7460  27.8797  28.2169  28.2856  28.3267  28.4399
    28.5836  28.8348  28.8553  28.9880  29.1708  29.1824  29.2680  29.3799
    29.5288  29.6150  29.7106  29.7474  29.9982  30.1027  30.2008  30.2897
    30.4036  30.4764  30.6654  30.6851  30.7816  30.9322  30.9482  31.0613
    31.2686  31.4593  31.5252  31.5848  31.6715  31.7071  31.9666  32.0725
    32.1613  32.2923  32.3219  32.3850  32.3859  32.6855  32.7118  32.9072
    32.9921  33.1682  33.2074  33.2233  33.2732  33.4069  33.4994  33.5056
    33.5727  33.7458  33.8588  33.9599  34.0918  34.2208  34.2391  34.2663
    34.4612  34.5039  34.5342  34.6411  34.8219  34.8547  35.0276  35.1391
    35.2052  35.2269  35.2412  35.3424  35.4338  35.4871  35.5520  35.6846
    35.8010  35.9255  36.0321  36.0362  36.1484  36.1642  36.3139  36.4315
    36.5297  36.5911  36.7785  36.8609  36.8709  37.0471  37.0733  37.0779
    37.2562  37.4055  37.4695  37.5753  37.6322  37.7056  37.7350  37.8685
    38.0253  38.0539  38.1133  38.1931  38.3148  38.3926  38.5196  38.5673
    38.6774  38.7068  38.8048  38.8830  38.9203  38.9930  39.0126  39.1238
    39.1548  39.3796  39.4322  39.5108  39.5965  39.6008  39.7143  39.8030
    39.9629  40.0848  40.1362  40.2198  40.2723  40.4372  40.4431  40.5630
    40.7016  40.7789  40.7843  40.8948  40.9108  40.9256  41.0618  41.0743
    41.1694  41.2629  41.3588  41.4794  41.4821  41.5719  41.6929  41.7481
    41.8582  41.8658  42.0874  42.1703  42.1711  42.3165  42.5614  42.5635
    42.5986  42.6510  42.7386  42.8587

     occupation numbers 
     1.0000   1.0000   1.0000   1.0000   1.0000   1.0000   1.0000   1.0000
     1.0000   1.0000   1.0000   1.0000   1.0000   1.0000   1.0000   1.0000
     1.0000   1.0000   1.0000   1.0000   1.0000   1.0000   1.0000   1.0000
     1.0000   1.0000   1.0000   1.0000   1.0000   1.0000   1.0000   1.0000
     1.0000   1.0000   1.0000   1.0000   1.0000   1.0000   1.0000   1.0000
     1.0000   1.0000   1.0000   1.0000   1.0000   1.0000   1.0000   1.0000
     1.0000   1.0000   1.0000   1.0000   1.0000   1.0000   1.0000   1.0000
     1.0000   1.0000   1.0000   1.0000   1.0000   1.0000   1.0000   1.0000
     1.0000   1.0000   1.0000   1.0000   1.0000   1.0000   1.0000   1.0000
     1.0000   1.0000   1.0000   1.0000   1.0000   1.0000   1.0000   1.0000
     1.0000   1.0000   1.0000   1.0000   1.0000   1.0000   1.0000   1.0000
     1.0000   1.0000   1.0000   1.0000   1.0000   1.0000   1.0000   1.0000
     1.0000   1.0000   1.0000   1.0000   1.0000   1.0000   1.0000   1.0000
     1.0000   1.0000   1.0000   1.0000   1.0000   1.0000   1.0000   1.0000
     1.0000   1.0000   1.0000   1.0000   1.0000   1.0000   1.0000   1.0000
     1.0000   1.0000   1.0000   1.0000   1.0000   1.0000   1.0000   1.0000
     1.0000   1.0000   1.0000   1.0000   1.0000   1.0000   1.0000   1.0000
     1.0000   1.0000   1.0000   1.0000   1.0000   1.0000   1.0000   1.0000
     1.0000   1.0000   1.0000   1.0000   1.0000   1.0000   1.0000   1.0000
     1.0000   1.0000   1.0000   1.0000   1.0000   1.0000   1.0000   1.0000
     1.0000   1.0000   1.0000   1.0000   1.0000   1.0000   1.0000   1.0000
     1.0000   1.0000   1.0000   1.0000   1.0000   1.0000   1.0000   1.0000
     1.0000   1.0000   1.0000   1.0000   1.0000   1.0000   1.0000   1.0000
     1.0000   1.0000   1.0000   1.0000   1.0000   1.0000   1.0000   1.0000
     1.0000   1.0000   1.0000   1.0000   1.0000   1.0000   1.0000   1.0000
     1.0000   1.0000   1.0000   1.0000   1.0000   0.0001   0.0000   0.0000
     0.0000   0.0000   0.0000   0.0000   0.0000   0.0000   0.0000   0.0000
     0.0000   0.0000   0.0000   0.0000   0.0000   0.0000   0.0000   0.0000
     0.0000   0.0000   0.0000   0.0000   0.0000   0.0000   0.0000   0.0000
     0.0000   0.0000   0.0000   0.0000   0.0000   0.0000   0.0000   0.0000
     0.0000   0.0000   0.0000   0.0000   0.0000   0.0000   0.0000   0.0000
     0.0000   0.0000   0.0000   0.0000   0.0000   0.0000   0.0000   0.0000
     0.0000   0.0000   0.0000   0.0000   0.0000   0.0000   0.0000   0.0000
     0.0000   0.0000   0.0000   0.0000   0.0000   0.0000   0.0000   0.0000
     0.0000   0.0000   0.0000   0.0000   0.0000   0.0000   0.0000   0.0000
     0.0000   0.0000   0.0000   0.0000   0.0000   0.0000   0.0000   0.0000
     0.0000   0.0000   0.0000   0.0000   0.0000   0.0000   0.0000   0.0000
     0.0000   0.0000   0.0000   0.0000   0.0000   0.0000   0.0000   0.0000
     0.0000   0.0000   0.0000   0.0000   0.0000   0.0000   0.0000   0.0000
     0.0000   0.0000   0.0000   0.0000   0.0000   0.0000   0.0000   0.0000
     0.0000   0.0000   0.0000   0.0000   0.0000   0.0000   0.0000   0.0000
     0.0000   0.0000   0.0000   0.0000   0.0000   0.0000   0.0000   0.0000
     0.0000   0.0000   0.0000   0.0000   0.0000   0.0000   0.0000   0.0000
     0.0000   0.0000   0.0000   0.0000   0.0000   0.0000   0.0000   0.0000
     0.0000   0.0000   0.0000   0.0000   0.0000   0.0000   0.0000   0.0000
     0.0000   0.0000   0.0000   0.0000   0.0000   0.0000   0.0000   0.0000
     0.0000   0.0000   0.0000   0.0000   0.0000   0.0000   0.0000   0.0000
     0.0000   0.0000   0.0000   0.0000   0.0000   0.0000   0.0000   0.0000
     0.0000   0.0000   0.0000   0.0000   0.0000   0.0000   0.0000   0.0000
     0.0000   0.0000   0.0000   0.0000   0.0000   0.0000   0.0000   0.0000
     0.0000   0.0000   0.0000   0.0000   0.0000   0.0000   0.0000   0.0000
     0.0000   0.0000   0.0000   0.0000   0.0000   0.0000   0.0000   0.0000
     0.0000   0.0000   0.0000   0.0000   0.0000   0.0000   0.0000   0.0000
     0.0000   0.0000   0.0000   0.0000   0.0000   0.0000   0.0000   0.0000
     0.0000   0.0000   0.0000   0.0000   0.0000   0.0000   0.0000   0.0000
     0.0000   0.0000   0.0000   0.0000   0.0000   0.0000   0.0000   0.0000
     0.0000   0.0000   0.0000   0.0000   0.0000   0.0000   0.0000   0.0000
     0.0000   0.0000   0.0000   0.0000   0.0000   0.0000   0.0000   0.0000
     0.0000   0.0000   0.0000   0.0000   0.0000   0.0000   0.0000   0.0000
     0.0000   0.0000   0.0000   0.0000   0.0000   0.0000   0.0000   0.0000
     0.0000   0.0000   0.0000   0.0000   0.0000   0.0000   0.0000   0.0000
     0.0000   0.0000   0.0000   0.0000   0.0000   0.0000   0.0000   0.0000
     0.0000   0.0000   0.0000   0.0000

          k = 0.0000 0.0000 0.3845 ( 59517 PWs)   bands (ev):

   -85.5963 -85.5837 -85.2977 -85.2975 -85.2892 -85.2890 -49.1137 -49.1017
   -49.0046 -48.9925 -48.9316 -48.9193 -48.9138 -48.9137 -48.9058 -48.9057
   -48.7020 -48.7009 -48.6937 -48.6926 -48.5629 -48.5608 -48.5546 -48.5524
   -42.0895 -42.0895 -42.0895 -42.0895 -42.0803 -42.0802 -42.0802 -42.0802
   -42.0352 -42.0352 -42.0350 -42.0350 -42.0311 -42.0311 -42.0309 -42.0309
   -41.9476 -41.9476 -41.9476 -41.9476 -41.9318 -41.9318 -41.9317 -41.9317
   -41.9003 -41.9003 -41.9001 -41.9001 -41.8853 -41.8853 -41.8852 -41.8852
   -41.8777 -41.8777 -41.8777 -41.8777 -41.8350 -41.8350 -41.8349 -41.8349
   -40.8817 -40.8811 -40.8808 -40.8802 -13.7989 -13.7550 -13.7470 -13.7074
   -13.6931 -13.6777 -13.6417 -13.5616 -13.2425 -13.2009 -13.1929 -13.1911
   -13.1193 -13.0098 -12.9865 -12.9327 -12.9110 -12.8606 -12.7894 -12.7875
   -11.0563 -10.9279 -10.8935 -10.8762 -10.8119 -10.7537 -10.6965 -10.6657
   -10.6560 -10.5542 -10.5515 -10.5423 -10.5209 -10.4897 -10.4775 -10.4502
    -3.8099  -3.6853  -3.6601  -3.5803  -3.3728  -3.2845  -3.2360  -3.1646
     0.4776   0.5335   0.7028   0.7634   0.8576   0.8649   1.0306   1.1272
     1.2161   1.2301   1.2836   1.3332   1.4160   1.4465   1.4841   1.6341
     1.7378   1.7781   1.8748   1.9617   2.1611   2.2138   2.4166   2.5126
     3.5649   3.5700   3.6935   3.7282   3.7669   3.7982   3.8149   3.8337
     3.8644   3.9823   3.9907   4.0600   4.0762   4.1368   4.3185   4.4108
     4.4245   4.5732   4.6069   4.6076   4.7158   4.7635   4.7842   4.8761
     4.9093   4.9496   5.0804   5.1285   5.1536   5.2402   5.2550   5.4168
     5.4209   5.5732   5.6172   5.6908   5.7344   5.7659   5.8583   5.8586
     5.9279   5.9478   6.0031   6.0392   6.0465   6.1187   6.1880   6.4620
     8.0426   8.0898   8.2378   8.2848   8.3012   8.3226   8.3716   8.3880
     8.4680   8.4704   8.4779   8.4860   8.5499   8.5590   8.6159   8.6345
     8.6967   8.7501   8.9344   8.9419   8.9979   9.1068   9.1686   9.2056
     9.2498   9.2874   9.2962   9.3665   9.4416   9.5292  11.6174  11.7148
    11.7784  11.8513  12.0359  12.1916  12.2248  12.2877  12.4475  12.4833
    12.4957  12.6470  12.7620  12.7979  12.9520  13.0376  13.2031  13.3203
    13.3578  13.4661  14.0690  14.2537  14.3177  14.3369  15.1010  15.9211
    16.0790  16.1836  16.4343  16.7758  16.8760  16.9011  17.0144  17.2182
    17.3025  17.3306  17.5522  17.8251  17.8790  18.0539  18.1687  18.1747
    18.3784  18.3889  18.5881  18.8670  18.8908  18.9059  19.0387  19.1845
    19.2244  19.3331  19.3964  19.4847  19.6219  19.6620  19.8313  20.0325
    20.1200  20.3784  20.3827  20.5601  20.6399  20.8767  20.9640  21.0217
    21.0278  21.0842  21.2366  21.2782  21.4476  21.5403  21.6170  21.6676
    21.7472  22.0251  22.0720  22.1451  22.2274  22.2293  22.4427  22.5349
    22.7360  22.7988  22.8993  23.1085  23.2106  23.2769  23.3204  23.5918
    23.6683  23.7471  24.0640  24.1472  24.1819  24.2987  24.3098  24.4563
    24.6021  24.8347  24.9180  25.0318  25.2977  25.3359  25.4858  25.6124
    25.8113  25.8540  25.8694  25.9441  26.3693  26.3825  26.4350  26.4503
    26.6360  26.6559  26.8488  26.9422  26.9744  27.0956  27.3259  27.5220
    27.6228  27.6546  27.7929  27.8946  27.9693  28.0194  28.4012  28.6134
    28.7041  28.7312  28.8473  28.9950  29.1547  29.1718  29.3540  29.5466
    29.5641  29.6230  29.6339  29.8794  29.9388  30.1407  30.1564  30.2695
    30.5334  30.5451  30.6579  30.7973  30.8842  30.9989  31.0338  31.1008
    31.2617  31.3759  31.4514  31.6116  31.6546  31.6692  31.7998  31.8683
    32.0547  32.3113  32.4748  32.4803  32.5802  32.6005  32.7869  32.8443
    32.8931  32.9822  33.0571  33.1546  33.2907  33.3126  33.4016  33.5871
    33.6986  33.8136  33.9139  33.9246  34.0250  34.1269  34.1495  34.3560
    34.3649  34.6240  34.6412  34.7725  34.8314  35.0637  35.0975  35.1221
    35.1485  35.2233  35.2278  35.2619  35.4149  35.4565  35.5973  35.6557
    35.7632  35.8716  35.9317  36.0593  36.1283  36.4352  36.4665  36.5671
    36.5871  36.6354  36.6583  36.9509  37.0195  37.0726  37.0767  37.1560
    37.3336  37.4547  37.4566  37.5446  37.5567  37.6205  37.6264  37.7780
    37.8665  37.9439  38.1301  38.1538  38.1850  38.3378  38.4036  38.4587
    38.6225  38.6810  38.8306  38.8787  38.9533  39.0465  39.1085  39.1670
    39.1673  39.2633  39.3547  39.4303  39.5312  39.5814  39.6560  39.7468
    39.8946  39.9034  40.0458  40.0815  40.2894  40.3809  40.4067  40.5016
    40.5992  40.6170  40.6895  40.8458  40.9928  41.0358  41.0910  41.1455
    41.1880  41.2589  41.4032  41.5278  41.5526  41.6185  41.7711  41.8163
    42.0111  42.1109  42.1558  42.1694  42.2594  42.3667  42.4235  42.4458
    42.5888  42.6350  42.7002  42.7350

     occupation numbers 
     1.0000   1.0000   1.0000   1.0000   1.0000   1.0000   1.0000   1.0000
     1.0000   1.0000   1.0000   1.0000   1.0000   1.0000   1.0000   1.0000
     1.0000   1.0000   1.0000   1.0000   1.0000   1.0000   1.0000   1.0000
     1.0000   1.0000   1.0000   1.0000   1.0000   1.0000   1.0000   1.0000
     1.0000   1.0000   1.0000   1.0000   1.0000   1.0000   1.0000   1.0000
     1.0000   1.0000   1.0000   1.0000   1.0000   1.0000   1.0000   1.0000
     1.0000   1.0000   1.0000   1.0000   1.0000   1.0000   1.0000   1.0000
     1.0000   1.0000   1.0000   1.0000   1.0000   1.0000   1.0000   1.0000
     1.0000   1.0000   1.0000   1.0000   1.0000   1.0000   1.0000   1.0000
     1.0000   1.0000   1.0000   1.0000   1.0000   1.0000   1.0000   1.0000
     1.0000   1.0000   1.0000   1.0000   1.0000   1.0000   1.0000   1.0000
     1.0000   1.0000   1.0000   1.0000   1.0000   1.0000   1.0000   1.0000
     1.0000   1.0000   1.0000   1.0000   1.0000   1.0000   1.0000   1.0000
     1.0000   1.0000   1.0000   1.0000   1.0000   1.0000   1.0000   1.0000
     1.0000   1.0000   1.0000   1.0000   1.0000   1.0000   1.0000   1.0000
     1.0000   1.0000   1.0000   1.0000   1.0000   1.0000   1.0000   1.0000
     1.0000   1.0000   1.0000   1.0000   1.0000   1.0000   1.0000   1.0000
     1.0000   1.0000   1.0000   1.0000   1.0000   1.0000   1.0000   1.0000
     1.0000   1.0000   1.0000   1.0000   1.0000   1.0000   1.0000   1.0000
     1.0000   1.0000   1.0000   1.0000   1.0000   1.0000   1.0000   1.0000
     1.0000   1.0000   1.0000   1.0000   1.0000   1.0000   1.0000   1.0000
     1.0000   1.0000   1.0000   1.0000   1.0000   1.0000   1.0000   1.0000
     1.0000   1.0000   1.0000   1.0000   1.0000   1.0000   1.0000   1.0000
     1.0000   1.0000   1.0000   1.0000   1.0000   1.0000   1.0000   1.0000
     1.0000   1.0000   1.0000   1.0000   1.0000   1.0000   1.0000   1.0000
     1.0000   1.0000   1.0000   1.0000   1.0133   0.0000   0.0000   0.0000
     0.0000   0.0000   0.0000   0.0000   0.0000   0.0000   0.0000   0.0000
     0.0000   0.0000   0.0000   0.0000   0.0000   0.0000   0.0000   0.0000
     0.0000   0.0000   0.0000   0.0000   0.0000   0.0000   0.0000   0.0000
     0.0000   0.0000   0.0000   0.0000   0.0000   0.0000   0.0000   0.0000
     0.0000   0.0000   0.0000   0.0000   0.0000   0.0000   0.0000   0.0000
     0.0000   0.0000   0.0000   0.0000   0.0000   0.0000   0.0000   0.0000
     0.0000   0.0000   0.0000   0.0000   0.0000   0.0000   0.0000   0.0000
     0.0000   0.0000   0.0000   0.0000   0.0000   0.0000   0.0000   0.0000
     0.0000   0.0000   0.0000   0.0000   0.0000   0.0000   0.0000   0.0000
     0.0000   0.0000   0.0000   0.0000   0.0000   0.0000   0.0000   0.0000
     0.0000   0.0000   0.0000   0.0000   0.0000   0.0000   0.0000   0.0000
     0.0000   0.0000   0.0000   0.0000   0.0000   0.0000   0.0000   0.0000
     0.0000   0.0000   0.0000   0.0000   0.0000   0.0000   0.0000   0.0000
     0.0000   0.0000   0.0000   0.0000   0.0000   0.0000   0.0000   0.0000
     0.0000   0.0000   0.0000   0.0000   0.0000   0.0000   0.0000   0.0000
     0.0000   0.0000   0.0000   0.0000   0.0000   0.0000   0.0000   0.0000
     0.0000   0.0000   0.0000   0.0000   0.0000   0.0000   0.0000   0.0000
     0.0000   0.0000   0.0000   0.0000   0.0000   0.0000   0.0000   0.0000
     0.0000   0.0000   0.0000   0.0000   0.0000   0.0000   0.0000   0.0000
     0.0000   0.0000   0.0000   0.0000   0.0000   0.0000   0.0000   0.0000
     0.0000   0.0000   0.0000   0.0000   0.0000   0.0000   0.0000   0.0000
     0.0000   0.0000   0.0000   0.0000   0.0000   0.0000   0.0000   0.0000
     0.0000   0.0000   0.0000   0.0000   0.0000   0.0000   0.0000   0.0000
     0.0000   0.0000   0.0000   0.0000   0.0000   0.0000   0.0000   0.0000
     0.0000   0.0000   0.0000   0.0000   0.0000   0.0000   0.0000   0.0000
     0.0000   0.0000   0.0000   0.0000   0.0000   0.0000   0.0000   0.0000
     0.0000   0.0000   0.0000   0.0000   0.0000   0.0000   0.0000   0.0000
     0.0000   0.0000   0.0000   0.0000   0.0000   0.0000   0.0000   0.0000
     0.0000   0.0000   0.0000   0.0000   0.0000   0.0000   0.0000   0.0000
     0.0000   0.0000   0.0000   0.0000   0.0000   0.0000   0.0000   0.0000
     0.0000   0.0000   0.0000   0.0000   0.0000   0.0000   0.0000   0.0000
     0.0000   0.0000   0.0000   0.0000   0.0000   0.0000   0.0000   0.0000
     0.0000   0.0000   0.0000   0.0000   0.0000   0.0000   0.0000   0.0000
     0.0000   0.0000   0.0000   0.0000   0.0000   0.0000   0.0000   0.0000
     0.0000   0.0000   0.0000   0.0000   0.0000   0.0000   0.0000   0.0000
     0.0000   0.0000   0.0000   0.0000   0.0000   0.0000   0.0000   0.0000
     0.0000   0.0000   0.0000   0.0000

          k = 0.0000 0.0000-0.5768 ( 59496 PWs)   bands (ev):

   -85.5963 -85.5837 -85.2977 -85.2975 -85.2892 -85.2890 -49.1137 -49.1017
   -49.0046 -48.9925 -48.9316 -48.9193 -48.9138 -48.9137 -48.9058 -48.9057
   -48.7020 -48.7009 -48.6937 -48.6926 -48.5629 -48.5608 -48.5546 -48.5524
   -42.0895 -42.0895 -42.0895 -42.0895 -42.0803 -42.0803 -42.0802 -42.0802
   -42.0352 -42.0352 -42.0350 -42.0350 -42.0311 -42.0311 -42.0309 -42.0309
   -41.9476 -41.9476 -41.9476 -41.9476 -41.9317 -41.9317 -41.9317 -41.9317
   -41.9003 -41.9003 -41.9001 -41.9001 -41.8853 -41.8853 -41.8852 -41.8852
   -41.8777 -41.8777 -41.8777 -41.8777 -41.8350 -41.8350 -41.8349 -41.8349
   -40.8817 -40.8811 -40.8808 -40.8802 -13.7700 -13.7699 -13.7297 -13.7297
   -13.6718 -13.6718 -13.6344 -13.6342 -13.2145 -13.2143 -13.1826 -13.1824
   -13.0253 -13.0251 -12.9765 -12.9765 -12.9023 -12.9022 -12.8022 -12.8022
   -10.9954 -10.9951 -10.8896 -10.8891 -10.7817 -10.7815 -10.6757 -10.6754
   -10.6005 -10.6002 -10.5364 -10.5364 -10.5057 -10.5049 -10.4715 -10.4710
    -3.7337  -3.7334  -3.6415  -3.6414  -3.2801  -3.2798  -3.2428  -3.2428
     0.5035   0.5036   0.7042   0.7044   0.8472   0.8472   1.1217   1.1220
     1.1927   1.1930   1.2704   1.2707   1.3909   1.3909   1.5468   1.5475
     1.7973   1.7974   1.8933   1.8937   2.2457   2.2457   2.5300   2.5302
     3.6387   3.6394   3.6998   3.7000   3.7747   3.7749   3.8220   3.8229
     3.9373   3.9375   4.0129   4.0138   4.0441   4.0447   4.3744   4.3750
     4.4959   4.4963   4.6275   4.6277   4.7327   4.7329   4.8430   4.8430
     4.9753   4.9754   5.1175   5.1179   5.1727   5.1728   5.2652   5.2656
     5.5063   5.5064   5.7039   5.7041   5.7415   5.7419   5.8404   5.8406
     5.9686   5.9691   5.9848   5.9849   6.0754   6.0756   6.2992   6.2993
     8.0596   8.0653   8.2473   8.2551   8.3274   8.3341   8.3712   8.3750
     8.4752   8.4768   8.4808   8.4813   8.5541   8.5542   8.6235   8.6254
     8.7207   8.7257   8.9714   8.9738   9.0480   9.0528   9.1691   9.1756
     9.2807   9.2822   9.3037   9.3046   9.4774   9.4793  11.6970  11.6970
    11.7377  11.7377  12.1844  12.1845  12.2774  12.2775  12.3871  12.3871
    12.5977  12.5980  12.8655  12.8656  12.9688  12.9690  13.1734  13.1737
    13.3472  13.3473  14.1615  14.1618  14.2879  14.2880  15.5283  15.5285
    16.3729  16.3732  16.4481  16.4483  16.7810  16.7816  17.1840  17.1845
    17.3181  17.3182  17.8238  17.8242  17.8606  17.8611  18.2137  18.2140
    18.4602  18.4610  18.7475  18.7477  18.8682  18.8687  19.1093  19.1097
    19.3633  19.3637  19.4643  19.4644  19.6142  19.6144  19.7552  19.7556
    20.2165  20.2168  20.6403  20.6405  20.7886  20.7886  21.0469  21.0474
    21.0583  21.0587  21.1966  21.1969  21.4129  21.4133  21.6608  21.6613
    21.8823  21.8824  21.8920  21.8921  22.2415  22.2418  22.5102  22.5105
    22.8733  22.8737  22.9952  22.9952  23.3229  23.3231  23.3782  23.3785
    23.6675  23.6681  24.1329  24.1329  24.2685  24.2686  24.3720  24.3728
    24.7897  24.7899  25.1331  25.1338  25.2711  25.2712  25.4866  25.4868
    25.6914  25.6918  25.9801  25.9802  26.2098  26.2099  26.5813  26.5814
    26.6893  26.6894  26.9871  26.9871  27.1324  27.1325  27.2913  27.2916
    27.3855  27.3855  27.8513  27.8516  28.0764  28.0765  28.5519  28.5521
    28.6897  28.6897  28.8012  28.8014  29.0560  29.0561  29.3466  29.3468
    29.6054  29.6055  29.9545  29.9546  30.1091  30.1094  30.1629  30.1634
    30.5838  30.5839  30.7544  30.7545  31.0184  31.0184  31.1855  31.1856
    31.5181  31.5183  31.7133  31.7138  31.8149  31.8150  31.8681  31.8682
    32.0504  32.0506  32.3189  32.3190  32.5099  32.5101  32.6583  32.6585
    32.6886  32.6891  33.0912  33.0914  33.3318  33.3319  33.3949  33.3950
    33.6460  33.6461  33.8111  33.8113  34.0638  34.0639  34.1862  34.1862
    34.5355  34.5355  34.6517  34.6519  34.9032  34.9033  35.0181  35.0181
    35.3596  35.3598  35.3764  35.3767  35.7107  35.7108  35.7317  35.7318
    35.8243  35.8243  36.0854  36.0855  36.3269  36.3270  36.4319  36.4320
    36.5969  36.5972  36.7999  36.8001  36.9989  36.9990  37.1916  37.1918
    37.2624  37.2625  37.4725  37.4726  37.6049  37.6049  37.8056  37.8057
    37.9052  37.9053  38.2392  38.2393  38.3373  38.3374  38.5447  38.5450
    38.6360  38.6360  38.7420  38.7421  38.8735  38.8735  38.9937  38.9938
    39.2438  39.2441  39.4860  39.4861  39.6490  39.6491  39.7409  39.7410
    39.8527  39.8531  39.8932  39.8933  40.2241  40.2243  40.3239  40.3241
    40.4974  40.4980  40.7731  40.7731  40.9732  40.9732  41.1148  41.1148
    41.3574  41.3577  41.6066  41.6067  41.6798  41.6800  41.7422  41.7426
    41.9190  41.9192  42.1269  42.1271  42.2562  42.2564  42.4004  42.4007
    42.5106  42.5108  42.8359  42.8360

     occupation numbers 
     1.0000   1.0000   1.0000   1.0000   1.0000   1.0000   1.0000   1.0000
     1.0000   1.0000   1.0000   1.0000   1.0000   1.0000   1.0000   1.0000
     1.0000   1.0000   1.0000   1.0000   1.0000   1.0000   1.0000   1.0000
     1.0000   1.0000   1.0000   1.0000   1.0000   1.0000   1.0000   1.0000
     1.0000   1.0000   1.0000   1.0000   1.0000   1.0000   1.0000   1.0000
     1.0000   1.0000   1.0000   1.0000   1.0000   1.0000   1.0000   1.0000
     1.0000   1.0000   1.0000   1.0000   1.0000   1.0000   1.0000   1.0000
     1.0000   1.0000   1.0000   1.0000   1.0000   1.0000   1.0000   1.0000
     1.0000   1.0000   1.0000   1.0000   1.0000   1.0000   1.0000   1.0000
     1.0000   1.0000   1.0000   1.0000   1.0000   1.0000   1.0000   1.0000
     1.0000   1.0000   1.0000   1.0000   1.0000   1.0000   1.0000   1.0000
     1.0000   1.0000   1.0000   1.0000   1.0000   1.0000   1.0000   1.0000
     1.0000   1.0000   1.0000   1.0000   1.0000   1.0000   1.0000   1.0000
     1.0000   1.0000   1.0000   1.0000   1.0000   1.0000   1.0000   1.0000
     1.0000   1.0000   1.0000   1.0000   1.0000   1.0000   1.0000   1.0000
     1.0000   1.0000   1.0000   1.0000   1.0000   1.0000   1.0000   1.0000
     1.0000   1.0000   1.0000   1.0000   1.0000   1.0000   1.0000   1.0000
     1.0000   1.0000   1.0000   1.0000   1.0000   1.0000   1.0000   1.0000
     1.0000   1.0000   1.0000   1.0000   1.0000   1.0000   1.0000   1.0000
     1.0000   1.0000   1.0000   1.0000   1.0000   1.0000   1.0000   1.0000
     1.0000   1.0000   1.0000   1.0000   1.0000   1.0000   1.0000   1.0000
     1.0000   1.0000   1.0000   1.0000   1.0000   1.0000   1.0000   1.0000
     1.0000   1.0000   1.0000   1.0000   1.0000   1.0000   1.0000   1.0000
     1.0000   1.0000   1.0000   1.0000   1.0000   1.0000   1.0000   1.0000
     1.0000   1.0000   1.0000   1.0000   1.0000   1.0000   1.0000   1.0000
     1.0000   1.0000   1.0000   1.0000   0.0111   0.0023   0.0000   0.0000
     0.0000   0.0000   0.0000   0.0000   0.0000   0.0000   0.0000   0.0000
     0.0000   0.0000   0.0000   0.0000   0.0000   0.0000   0.0000   0.0000
     0.0000   0.0000   0.0000   0.0000   0.0000   0.0000   0.0000   0.0000
     0.0000   0.0000   0.0000   0.0000   0.0000   0.0000   0.0000   0.0000
     0.0000   0.0000   0.0000   0.0000   0.0000   0.0000   0.0000   0.0000
     0.0000   0.0000   0.0000   0.0000   0.0000   0.0000   0.0000   0.0000
     0.0000   0.0000   0.0000   0.0000   0.0000   0.0000   0.0000   0.0000
     0.0000   0.0000   0.0000   0.0000   0.0000   0.0000   0.0000   0.0000
     0.0000   0.0000   0.0000   0.0000   0.0000   0.0000   0.0000   0.0000
     0.0000   0.0000   0.0000   0.0000   0.0000   0.0000   0.0000   0.0000
     0.0000   0.0000   0.0000   0.0000   0.0000   0.0000   0.0000   0.0000
     0.0000   0.0000   0.0000   0.0000   0.0000   0.0000   0.0000   0.0000
     0.0000   0.0000   0.0000   0.0000   0.0000   0.0000   0.0000   0.0000
     0.0000   0.0000   0.0000   0.0000   0.0000   0.0000   0.0000   0.0000
     0.0000   0.0000   0.0000   0.0000   0.0000   0.0000   0.0000   0.0000
     0.0000   0.0000   0.0000   0.0000   0.0000   0.0000   0.0000   0.0000
     0.0000   0.0000   0.0000   0.0000   0.0000   0.0000   0.0000   0.0000
     0.0000   0.0000   0.0000   0.0000   0.0000   0.0000   0.0000   0.0000
     0.0000   0.0000   0.0000   0.0000   0.0000   0.0000   0.0000   0.0000
     0.0000   0.0000   0.0000   0.0000   0.0000   0.0000   0.0000   0.0000
     0.0000   0.0000   0.0000   0.0000   0.0000   0.0000   0.0000   0.0000
     0.0000   0.0000   0.0000   0.0000   0.0000   0.0000   0.0000   0.0000
     0.0000   0.0000   0.0000   0.0000   0.0000   0.0000   0.0000   0.0000
     0.0000   0.0000   0.0000   0.0000   0.0000   0.0000   0.0000   0.0000
     0.0000   0.0000   0.0000   0.0000   0.0000   0.0000   0.0000   0.0000
     0.0000   0.0000   0.0000   0.0000   0.0000   0.0000   0.0000   0.0000
     0.0000   0.0000   0.0000   0.0000   0.0000   0.0000   0.0000   0.0000
     0.0000   0.0000   0.0000   0.0000   0.0000   0.0000   0.0000   0.0000
     0.0000   0.0000   0.0000   0.0000   0.0000   0.0000   0.0000   0.0000
     0.0000   0.0000   0.0000   0.0000   0.0000   0.0000   0.0000   0.0000
     0.0000   0.0000   0.0000   0.0000   0.0000   0.0000   0.0000   0.0000
     0.0000   0.0000   0.0000   0.0000   0.0000   0.0000   0.0000   0.0000
     0.0000   0.0000   0.0000   0.0000   0.0000   0.0000   0.0000   0.0000
     0.0000   0.0000   0.0000   0.0000   0.0000   0.0000   0.0000   0.0000
     0.0000   0.0000   0.0000   0.0000   0.0000   0.0000   0.0000   0.0000
     0.0000   0.0000   0.0000   0.0000   0.0000   0.0000   0.0000   0.0000
     0.0000   0.0000   0.0000   0.0000

          k = 0.0000 0.1458 0.0000 ( 59575 PWs)   bands (ev):

   -85.5963 -85.5837 -85.2977 -85.2975 -85.2892 -85.2890 -49.1137 -49.1017
   -49.0046 -48.9925 -48.9316 -48.9193 -48.9138 -48.9137 -48.9058 -48.9057
   -48.7020 -48.7009 -48.6937 -48.6926 -48.5629 -48.5608 -48.5546 -48.5524
[...]
     5.4252   5.5180   5.5814   5.6116   5.6326   5.7104   5.7502   5.7919
     5.8567   5.9369   6.0210   6.1230   6.1604   6.2145   6.3647   6.3749
     8.0466   8.1038   8.2381   8.2583   8.3293   8.3501   8.3889   8.4146
     8.4193   8.4587   8.4920   8.5045   8.5132   8.5255   8.6205   8.6430
     8.7142   8.7695   8.9145   8.9409   8.9972   9.0475   9.1169   9.1763
     9.2360   9.2546   9.3127   9.3911   9.5273   9.5378  11.6412  11.7830
    11.8197  11.8684  12.0569  12.0994  12.2065  12.2515  12.4009  12.4955
    12.5499  12.6406  12.7239  12.8302  13.0378  13.1388  13.2881  13.3514
    13.5214  13.7834  13.9508  14.1298  14.3107  14.3982  15.3270  15.7860
    15.8770  15.9359  16.3078  16.5978  16.8826  16.9595  17.2123  17.3079
    17.3854  17.4818  17.6082  17.7943  17.9004  18.0042  18.0792  18.1269
    18.2490  18.3568  18.4596  18.6478  18.6772  18.7869  18.8268  19.0173
    19.2063  19.2896  19.4345  19.5095  19.6202  19.7684  19.8296  19.9413
    20.0606  20.1900  20.3902  20.5174  20.6635  20.8304  20.8614  20.9049
    20.9830  21.0411  21.1400  21.2724  21.4230  21.5355  21.6937  21.7844
    21.8680  22.0334  22.3229  22.3754  22.4238  22.5212  22.6131  22.7292
    22.9073  22.9771  23.1966  23.2103  23.2954  23.3667  23.4824  23.6614
    23.6719  23.7214  23.8917  24.0740  24.2299  24.3178  24.4626  24.6182
    24.6844  24.8320  24.9467  24.9929  25.2219  25.2958  25.4885  25.5582
    25.6668  25.7033  25.8051  25.9341  25.9570  26.1974  26.4110  26.4591
    26.4926  26.6911  26.7197  26.8510  27.0184  27.1601  27.2123  27.4287
    27.5125  27.7931  27.8669  27.9791  28.1476  28.3235  28.3944  28.4104
    28.5212  28.7275  28.8691  28.9529  29.2369  29.3056  29.3482  29.3952
    29.5380  29.6992  29.7952  29.9002  30.0116  30.1044  30.2122  30.4347
    30.5221  30.6128  30.7059  30.8209  30.9686  31.0658  31.0834  31.1322
    31.2336  31.2989  31.3788  31.4037  31.6732  31.8396  31.9409  31.9643
    32.0602  32.2021  32.2182  32.2853  32.3463  32.4779  32.5505  32.7103
    32.7744  32.8574  32.9762  33.0152  33.2064  33.2888  33.3669  33.4998
    33.6593  33.6901  33.7800  33.9112  33.9887  34.1698  34.2736  34.3594
    34.3882  34.5299  34.5706  34.5985  34.6611  34.8123  34.9139  35.1254
    35.1589  35.2181  35.2932  35.4722  35.6077  35.7068  35.7994  35.8784
    35.9407  36.0267  36.0740  36.2185  36.2997  36.3639  36.4147  36.5080
    36.5728  36.6690  36.7710  36.7811  36.8931  37.0609  37.1699  37.2104
    37.2798  37.3294  37.4145  37.4786  37.4899  37.6410  37.7455  37.8445
    37.9008  37.9500  38.0687  38.1442  38.2215  38.3838  38.4895  38.5732
    38.6130  38.6697  38.6878  38.7591  39.0088  39.0313  39.1637  39.1853
    39.2343  39.2706  39.3505  39.4757  39.6281  39.6480  39.7484  39.8650
    39.9198  39.9976  40.0209  40.1925  40.2845  40.3301  40.4243  40.5025
    40.5893  40.6518  40.7657  40.7893  40.9424  40.9898  41.1163  41.1859
    41.3180  41.3519  41.4661  41.5789  41.6356  41.7399  41.8212  41.8788
    41.9169  42.0014  42.0985  42.1781  42.2274  42.3000  42.4097  42.5320
    42.6013  42.7227  42.7582  42.8139

     occupation numbers 
     1.0000   1.0000   1.0000   1.0000   1.0000   1.0000   1.0000   1.0000
     1.0000   1.0000   1.0000   1.0000   1.0000   1.0000   1.0000   1.0000
     1.0000   1.0000   1.0000   1.0000   1.0000   1.0000   1.0000   1.0000
     1.0000   1.0000   1.0000   1.0000   1.0000   1.0000   1.0000   1.0000
     1.0000   1.0000   1.0000   1.0000   1.0000   1.0000   1.0000   1.0000
     1.0000   1.0000   1.0000   1.0000   1.0000   1.0000   1.0000   1.0000
     1.0000   1.0000   1.0000   1.0000   1.0000   1.0000   1.0000   1.0000
     1.0000   1.0000   1.0000   1.0000   1.0000   1.0000   1.0000   1.0000
     1.0000   1.0000   1.0000   1.0000   1.0000   1.0000   1.0000   1.0000
     1.0000   1.0000   1.0000   1.0000   1.0000   1.0000   1.0000   1.0000
     1.0000   1.0000   1.0000   1.0000   1.0000   1.0000   1.0000   1.0000
     1.0000   1.0000   1.0000   1.0000   1.0000   1.0000   1.0000   1.0000
     1.0000   1.0000   1.0000   1.0000   1.0000   1.0000   1.0000   1.0000
     1.0000   1.0000   1.0000   1.0000   1.0000   1.0000   1.0000   1.0000
     1.0000   1.0000   1.0000   1.0000   1.0000   1.0000   1.0000   1.0000
     1.0000   1.0000   1.0000   1.0000   1.0000   1.0000   1.0000   1.0000
     1.0000   1.0000   1.0000   1.0000   1.0000   1.0000   1.0000   1.0000
     1.0000   1.0000   1.0000   1.0000   1.0000   1.0000   1.0000   1.0000
     1.0000   1.0000   1.0000   1.0000   1.0000   1.0000   1.0000   1.0000
     1.0000   1.0000   1.0000   1.0000   1.0000   1.0000   1.0000   1.0000
     1.0000   1.0000   1.0000   1.0000   1.0000   1.0000   1.0000   1.0000
     1.0000   1.0000   1.0000   1.0000   1.0000   1.0000   1.0000   1.0000
     1.0000   1.0000   1.0000   1.0000   1.0000   1.0000   1.0000   1.0000
     1.0000   1.0000   1.0000   1.0000   1.0000   1.0000   1.0000   1.0000
     1.0000   1.0000   1.0000   1.0000   1.0000   1.0000   1.0000   1.0000
     1.0000   1.0000   1.0000   1.0000   1.0112   0.0128   0.0000   0.0000
     0.0000   0.0000   0.0000   0.0000   0.0000   0.0000   0.0000   0.0000
     0.0000   0.0000   0.0000   0.0000   0.0000   0.0000   0.0000   0.0000
     0.0000   0.0000   0.0000   0.0000   0.0000   0.0000   0.0000   0.0000
     0.0000   0.0000   0.0000   0.0000   0.0000   0.0000   0.0000   0.0000
     0.0000   0.0000   0.0000   0.0000   0.0000   0.0000   0.0000   0.0000
     0.0000   0.0000   0.0000   0.0000   0.0000   0.0000   0.0000   0.0000
     0.0000   0.0000   0.0000   0.0000   0.0000   0.0000   0.0000   0.0000
     0.0000   0.0000   0.0000   0.0000   0.0000   0.0000   0.0000   0.0000
     0.0000   0.0000   0.0000   0.0000   0.0000   0.0000   0.0000   0.0000
     0.0000   0.0000   0.0000   0.0000   0.0000   0.0000   0.0000   0.0000
     0.0000   0.0000   0.0000   0.0000   0.0000   0.0000   0.0000   0.0000
     0.0000   0.0000   0.0000   0.0000   0.0000   0.0000   0.0000   0.0000
     0.0000   0.0000   0.0000   0.0000   0.0000   0.0000   0.0000   0.0000
     0.0000   0.0000   0.0000   0.0000   0.0000   0.0000   0.0000   0.0000
     0.0000   0.0000   0.0000   0.0000   0.0000   0.0000   0.0000   0.0000
     0.0000   0.0000   0.0000   0.0000   0.0000   0.0000   0.0000   0.0000
     0.0000   0.0000   0.0000   0.0000   0.0000   0.0000   0.0000   0.0000
     0.0000   0.0000   0.0000   0.0000   0.0000   0.0000   0.0000   0.0000
     0.0000   0.0000   0.0000   0.0000   0.0000   0.0000   0.0000   0.0000
     0.0000   0.0000   0.0000   0.0000   0.0000   0.0000   0.0000   0.0000
     0.0000   0.0000   0.0000   0.0000   0.0000   0.0000   0.0000   0.0000
     0.0000   0.0000   0.0000   0.0000   0.0000   0.0000   0.0000   0.0000
     0.0000   0.0000   0.0000   0.0000   0.0000   0.0000   0.0000   0.0000
     0.0000   0.0000   0.0000   0.0000   0.0000   0.0000   0.0000   0.0000
     0.0000   0.0000   0.0000   0.0000   0.0000   0.0000   0.0000   0.0000
     0.0000   0.0000   0.0000   0.0000   0.0000   0.0000   0.0000   0.0000
     0.0000   0.0000   0.0000   0.0000   0.0000   0.0000   0.0000   0.0000
     0.0000   0.0000   0.0000   0.0000   0.0000   0.0000   0.0000   0.0000
     0.0000   0.0000   0.0000   0.0000   0.0000   0.0000   0.0000   0.0000
     0.0000   0.0000   0.0000   0.0000   0.0000   0.0000   0.0000   0.0000
     0.0000   0.0000   0.0000   0.0000   0.0000   0.0000   0.0000   0.0000
     0.0000   0.0000   0.0000   0.0000   0.0000   0.0000   0.0000   0.0000
     0.0000   0.0000   0.0000   0.0000   0.0000   0.0000   0.0000   0.0000
     0.0000   0.0000   0.0000   0.0000   0.0000   0.0000   0.0000   0.0000
     0.0000   0.0000   0.0000   0.0000   0.0000   0.0000   0.0000   0.0000
     0.0000   0.0000   0.0000   0.0000   0.0000   0.0000   0.0000   0.0000
     0.0000   0.0000   0.0000   0.0000

          k = 0.5000 0.2916-0.1429 ( 59554 PWs)   bands (ev):

   -85.5963 -85.5837 -85.2977 -85.2975 -85.2892 -85.2890 -49.1137 -49.1017
   -49.0046 -48.9925 -48.9316 -48.9193 -48.9139 -48.9136 -48.9059 -48.9056
   -48.7020 -48.7009 -48.6937 -48.6926 -48.5629 -48.5608 -48.5546 -48.5524
   -42.0895 -42.0895 -42.0895 -42.0895 -42.0803 -42.0803 -42.0802 -42.0802
   -42.0352 -42.0352 -42.0350 -42.0350 -42.0311 -42.0311 -42.0309 -42.0309
   -41.9476 -41.9476 -41.9476 -41.9476 -41.9318 -41.9318 -41.9317 -41.9317
   -41.9003 -41.9003 -41.9001 -41.9001 -41.8853 -41.8853 -41.8852 -41.8852
   -41.8777 -41.8777 -41.8777 -41.8777 -41.8350 -41.8350 -41.8349 -41.8349
   -40.8817 -40.8811 -40.8808 -40.8802 -13.8098 -13.7647 -13.7314 -13.7234
   -13.6785 -13.6733 -13.6350 -13.5886 -13.2304 -13.2132 -13.1877 -13.1728
   -13.0705 -13.0175 -12.9483 -12.9319 -12.8933 -12.8706 -12.8392 -12.8316
   -11.0302 -10.9583 -10.9246 -10.8745 -10.7712 -10.7556 -10.7010 -10.6911
   -10.6061 -10.5879 -10.5540 -10.5344 -10.5104 -10.4921 -10.4719 -10.4549
    -3.7744  -3.7711  -3.5672  -3.5098  -3.3925  -3.3151  -3.2815  -3.2037
     0.5573   0.5871   0.6542   0.7091   0.9010   0.9495   1.0279   1.0781
     1.2622   1.2840   1.3293   1.3727   1.4376   1.4599   1.5506   1.6390
     1.6936   1.7318   1.8918   1.9515   2.0107   2.1034   2.2180   2.4085
     3.5329   3.5728   3.6970   3.7338   3.7494   3.8147   3.8600   3.9153
     4.0302   4.0549   4.0731   4.1066   4.1482   4.1795   4.2568   4.2948
     4.3216   4.4421   4.5344   4.6289   4.7507   4.7689   4.8275   4.8927
     4.9914   5.0257   5.0756   5.1358   5.1517   5.2431   5.2922   5.3310
     5.4654   5.5204   5.5659   5.6292   5.6626   5.7213   5.7381   5.8223
     5.8597   5.9222   6.0458   6.0974   6.1525   6.1739   6.4077   6.4304
     8.0520   8.0860   8.2483   8.2636   8.3343   8.3507   8.3817   8.3948
     8.4346   8.4604   8.4869   8.5023   8.5140   8.5217   8.6236   8.6418
     8.7154   8.7578   8.9291   8.9638   9.0133   9.0761   9.1471   9.1772
     9.2346   9.2705   9.3466   9.3632   9.4917   9.4939  11.6720  11.7694
    11.8217  11.8784  12.0420  12.0838  12.1604  12.2151  12.3532  12.4382
    12.5537  12.6356  12.7474  12.7621  13.0276  13.1082  13.2390  13.3080
    13.4477  13.6205  13.8946  14.0408  14.4792  14.5387  15.5678  15.8651
    15.9958  16.1021  16.2187  16.5049  16.7992  16.9947  17.0908  17.2802
    17.4032  17.5317  17.6279  17.7651  17.8233  17.9417  18.0630  18.1191
    18.2602  18.3548  18.5378  18.6117  18.6826  18.8257  18.8897  19.0033
    19.0621  19.2332  19.2479  19.4724  19.6709  19.8584  19.9588  19.9902
    20.1410  20.3534  20.3593  20.5096  20.6107  20.7328  20.7709  20.9039
    20.9644  21.1376  21.2713  21.3629  21.5422  21.5891  21.7600  21.7978
    21.9697  21.9893  22.1829  22.2776  22.3409  22.4382  22.5421  22.6302
    22.8385  22.8933  23.1140  23.2423  23.2854  23.3343  23.5005  23.6011
    23.6561  23.7422  23.8096  24.0882  24.1981  24.2851  24.3886  24.6639
    24.8200  24.8357  24.9640  25.0967  25.2501  25.3386  25.4304  25.4739
    25.5988  25.7245  25.9257  25.9373  26.0369  26.3193  26.4106  26.4987
    26.5907  26.7159  26.8956  26.9867  27.1735  27.2270  27.4203  27.4508
    27.7901  27.9573  27.9868  28.1196  28.1751  28.2412  28.3972  28.4775
    28.5605  28.6515  28.7537  28.9295  29.0297  29.2590  29.4123  29.4400
    29.5663  29.5698  29.6964  29.8108  29.9046  30.0804  30.1017  30.3241
    30.3935  30.5146  30.6001  30.6260  30.8525  30.9293  31.0580  31.0635
    31.1124  31.3397  31.4044  31.5094  31.5927  31.7694  31.8235  31.8831
    32.0635  32.1661  32.2048  32.3885  32.4380  32.6029  32.6983  32.7662
    32.7938  32.9793  33.0685  33.1892  33.2226  33.2770  33.4009  33.4189
    33.4981  33.7012  33.7996  33.8471  33.9954  34.0267  34.1461  34.2766
    34.3630  34.4032  34.4563  34.4873  34.7234  34.8552  34.9931  35.1018
    35.1506  35.2345  35.3205  35.4839  35.5558  35.6295  35.7309  35.8280
    35.8527  35.9261  35.9826  36.1438  36.1595  36.3066  36.3672  36.4504
    36.6339  36.7429  36.8183  36.8560  36.9127  37.0108  37.0967  37.1590
    37.2931  37.3307  37.4471  37.5549  37.6183  37.6613  37.8094  37.8179
    37.9563  38.0223  38.0624  38.1311  38.2447  38.3026  38.4817  38.5266
    38.6371  38.6914  38.8360  38.9703  39.0374  39.1070  39.1795  39.2643
    39.3190  39.4385  39.4485  39.5542  39.7033  39.7235  39.8102  39.8490
    39.8978  40.0181  40.1443  40.2984  40.3723  40.4405  40.4934  40.5268
    40.6576  40.7226  40.8558  40.9404  40.9956  41.1310  41.1546  41.2366
    41.2811  41.3655  41.4264  41.4797  41.4956  41.6058  41.6782  41.8248
    41.8302  41.9372  42.0744  42.1510  42.2231  42.3793  42.4172  42.4551
    42.5385  42.6213  42.7447  42.8187

     occupation numbers 
     1.0000   1.0000   1.0000   1.0000   1.0000   1.0000   1.0000   1.0000
     1.0000   1.0000   1.0000   1.0000   1.0000   1.0000   1.0000   1.0000
     1.0000   1.0000   1.0000   1.0000   1.0000   1.0000   1.0000   1.0000
     1.0000   1.0000   1.0000   1.0000   1.0000   1.0000   1.0000   1.0000
     1.0000   1.0000   1.0000   1.0000   1.0000   1.0000   1.0000   1.0000
     1.0000   1.0000   1.0000   1.0000   1.0000   1.0000   1.0000   1.0000
     1.0000   1.0000   1.0000   1.0000   1.0000   1.0000   1.0000   1.0000
     1.0000   1.0000   1.0000   1.0000   1.0000   1.0000   1.0000   1.0000
     1.0000   1.0000   1.0000   1.0000   1.0000   1.0000   1.0000   1.0000
     1.0000   1.0000   1.0000   1.0000   1.0000   1.0000   1.0000   1.0000
     1.0000   1.0000   1.0000   1.0000   1.0000   1.0000   1.0000   1.0000
     1.0000   1.0000   1.0000   1.0000   1.0000   1.0000   1.0000   1.0000
     1.0000   1.0000   1.0000   1.0000   1.0000   1.0000   1.0000   1.0000
     1.0000   1.0000   1.0000   1.0000   1.0000   1.0000   1.0000   1.0000
     1.0000   1.0000   1.0000   1.0000   1.0000   1.0000   1.0000   1.0000
     1.0000   1.0000   1.0000   1.0000   1.0000   1.0000   1.0000   1.0000
     1.0000   1.0000   1.0000   1.0000   1.0000   1.0000   1.0000   1.0000
     1.0000   1.0000   1.0000   1.0000   1.0000   1.0000   1.0000   1.0000
     1.0000   1.0000   1.0000   1.0000   1.0000   1.0000   1.0000   1.0000
     1.0000   1.0000   1.0000   1.0000   1.0000   1.0000   1.0000   1.0000
     1.0000   1.0000   1.0000   1.0000   1.0000   1.0000   1.0000   1.0000
     1.0000   1.0000   1.0000   1.0000   1.0000   1.0000   1.0000   1.0000
     1.0000   1.0000   1.0000   1.0000   1.0000   1.0000   1.0000   1.0000
     1.0000   1.0000   1.0000   1.0000   1.0000   1.0000   1.0000   1.0000
     1.0000   1.0000   1.0000   1.0000   1.0000   1.0000   1.0000   1.0000
     1.0000   1.0000   1.0000   1.0000   1.0792   0.0000   0.0000   0.0000
     0.0000   0.0000   0.0000   0.0000   0.0000   0.0000   0.0000   0.0000
     0.0000   0.0000   0.0000   0.0000   0.0000   0.0000   0.0000   0.0000
     0.0000   0.0000   0.0000   0.0000   0.0000   0.0000   0.0000   0.0000
     0.0000   0.0000   0.0000   0.0000   0.0000   0.0000   0.0000   0.0000
     0.0000   0.0000   0.0000   0.0000   0.0000   0.0000   0.0000   0.0000
     0.0000   0.0000   0.0000   0.0000   0.0000   0.0000   0.0000   0.0000
     0.0000   0.0000   0.0000   0.0000   0.0000   0.0000   0.0000   0.0000
     0.0000   0.0000   0.0000   0.0000   0.0000   0.0000   0.0000   0.0000
     0.0000   0.0000   0.0000   0.0000   0.0000   0.0000   0.0000   0.0000
     0.0000   0.0000   0.0000   0.0000   0.0000   0.0000   0.0000   0.0000
     0.0000   0.0000   0.0000   0.0000   0.0000   0.0000   0.0000   0.0000
     0.0000   0.0000   0.0000   0.0000   0.0000   0.0000   0.0000   0.0000
     0.0000   0.0000   0.0000   0.0000   0.0000   0.0000   0.0000   0.0000
     0.0000   0.0000   0.0000   0.0000   0.0000   0.0000   0.0000   0.0000
     0.0000   0.0000   0.0000   0.0000   0.0000   0.0000   0.0000   0.0000
     0.0000   0.0000   0.0000   0.0000   0.0000   0.0000   0.0000   0.0000
     0.0000   0.0000   0.0000   0.0000   0.0000   0.0000   0.0000   0.0000
     0.0000   0.0000   0.0000   0.0000   0.0000   0.0000   0.0000   0.0000
     0.0000   0.0000   0.0000   0.0000   0.0000   0.0000   0.0000   0.0000
     0.0000   0.0000   0.0000   0.0000   0.0000   0.0000   0.0000   0.0000
     0.0000   0.0000   0.0000   0.0000   0.0000   0.0000   0.0000   0.0000
     0.0000   0.0000   0.0000   0.0000   0.0000   0.0000   0.0000   0.0000
     0.0000   0.0000   0.0000   0.0000   0.0000   0.0000   0.0000   0.0000
     0.0000   0.0000   0.0000   0.0000   0.0000   0.0000   0.0000   0.0000
     0.0000   0.0000   0.0000   0.0000   0.0000   0.0000   0.0000   0.0000
     0.0000   0.0000   0.0000   0.0000   0.0000   0.0000   0.0000   0.0000
     0.0000   0.0000   0.0000   0.0000   0.0000   0.0000   0.0000   0.0000
     0.0000   0.0000   0.0000   0.0000   0.0000   0.0000   0.0000   0.0000
     0.0000   0.0000   0.0000   0.0000   0.0000   0.0000   0.0000   0.0000
     0.0000   0.0000   0.0000   0.0000   0.0000   0.0000   0.0000   0.0000
     0.0000   0.0000   0.0000   0.0000   0.0000   0.0000   0.0000   0.0000
     0.0000   0.0000   0.0000   0.0000   0.0000   0.0000   0.0000   0.0000
     0.0000   0.0000   0.0000   0.0000   0.0000   0.0000   0.0000   0.0000
     0.0000   0.0000   0.0000   0.0000   0.0000   0.0000   0.0000   0.0000
     0.0000   0.0000   0.0000   0.0000   0.0000   0.0000   0.0000   0.0000
     0.0000   0.0000   0.0000   0.0000   0.0000   0.0000   0.0000   0.0000
     0.0000   0.0000   0.0000   0.0000

     the Fermi energy is     9.0309 ev
     (compare with:     9.0306 eV, computed in scf)

     Writing all to output data dir ./out/ncso.save/
 
     init_run     :      1.18s CPU      1.44s WALL (       1 calls)
     electrons    :   1734.19s CPU   1784.38s WALL (       1 calls)

     Called by init_run:
     wfcinit      :      0.00s CPU      0.00s WALL (       1 calls)
     wfcinit:atom :      0.40s CPU      0.45s WALL (     112 calls)
     wfcinit:wfcr :     72.05s CPU     73.24s WALL (     112 calls)
     potinit      :      0.03s CPU      0.13s WALL (       1 calls)
     hinit0       :      0.97s CPU      1.13s WALL (       1 calls)

     Called by electrons:
     c_bands      :   1734.12s CPU   1784.30s WALL (       1 calls)
     v_of_rho     :      0.02s CPU      0.03s WALL (       1 calls)
     v_h          :      0.00s CPU      0.00s WALL (       1 calls)
     v_xc         :      0.02s CPU      0.03s WALL (       1 calls)

     Called by c_bands:
     init_us_2    :      0.53s CPU      0.54s WALL (     112 calls)
     init_us_2:cp :      0.53s CPU      0.54s WALL (     112 calls)
     cegterg      :   1628.13s CPU   1657.25s WALL (     167 calls)

     Called by sum_band:

     Called by *egterg:
     cdiaghg      :    706.53s CPU    713.39s WALL (    2419 calls)
     cegterg:over :    175.93s CPU    179.83s WALL (    2307 calls)
     cegterg:upda :    146.55s CPU    149.62s WALL (    2307 calls)
     cegterg:last :    210.01s CPU    218.81s WALL (     972 calls)
     cdiaghg:chol :     23.62s CPU     23.73s WALL (    2419 calls)
     cdiaghg:inve :      5.89s CPU      5.92s WALL (    2419 calls)
     cdiaghg:para :     57.62s CPU     62.18s WALL (    4838 calls)
     h_psi        :    418.97s CPU    425.87s WALL (    2586 calls)
     g_psi        :      3.10s CPU      3.12s WALL (    2307 calls)

     Called by h_psi:
     h_psi:calbec :     76.93s CPU     79.43s WALL (    2586 calls)
     vloc_psi     :    266.18s CPU    269.84s WALL (    2586 calls)
     add_vuspsi   :     70.91s CPU     71.35s WALL (    2586 calls)

     General routines
     calbec       :     76.92s CPU     79.43s WALL (    2586 calls)
     fft          :      0.22s CPU      0.38s WALL (      11 calls)
     fftw         :    235.70s CPU    238.91s WALL ( 1103940 calls)
     davcio       :      0.05s CPU     34.52s WALL (     224 calls)
 
     Parallel routines
 
     PWSCF        :  29m43.97s CPU  49m59.44s WALL

 
   This run was terminated on:  20:34:19   3May2024            

=------------------------------------------------------------------------------=
   JOB DONE.
=------------------------------------------------------------------------------=
