
     Program PWSCF v.7.2 starts on  3May2024 at 17:12: 3 

     This program is part of the open-source Quantum ESPRESSO suite
     for quantum simulation of materials; please cite
         "P. Giannozzi et al., J. Phys.:Condens. Matter 21 395502 (2009);
         "P. Giannozzi et al., J. Phys.:Condens. Matter 29 465901 (2017);
         "P. Giannozzi et al., J. Chem. Phys. 152 154105 (2020);
          URL http://www.quantum-espresso.org", 
     in publications or presentations arising from this work. More details at
     http://www.quantum-espresso.org/quote

     Parallel version (MPI), running on    36 processors

     MPI processes distributed on     1 nodes
     246319 MiB available memory on the printing compute node when the environment starts
 
     Reading input from ncso_scf.in

     Current dimensions of program PWSCF are:
     Max number of different atomic species (ntypx) = 10
     Max number of k-points (npk) =  40000
     Max angular momentum in pseudopotentials (lmaxx) =  4
     Message from routine setup:
     using ibrav=0 with symmetry is DISCOURAGED, use correct ibrav instead
 
     R & G space division:  proc/nbgrp/npool/nimage =      36
     Subspace diagonalization in iterative solution of the eigenvalue problem:
     one sub-group per band group will be used
     custom distributed-memory algorithm (size of sub-group:  5*  5 procs)

 
     Parallelization info
     --------------------
     sticks:   dense  smooth     PW     G-vecs:    dense   smooth      PW
     Min         235     235     64                13233    13233    1878
     Max         236     236     65                13237    13237    1881
     Sum        8475    8475   2311               476443   476443   67657
 
     Using Slab Decomposition
 


     bravais-lattice index     =            0
     lattice parameter (alat)  =      15.2665  a.u.
     unit-cell volume          =    3526.2206 (a.u.)^3
     number of atoms/cell      =           42
     number of atomic types    =            4
     number of electrons       =       410.00
     number of Kohn-Sham states=          500
     kinetic-energy cutoff     =     100.0000  Ry
     charge density cutoff     =     400.0000  Ry
     scf convergence threshold =      1.0E-06
     mixing beta               =       0.2000
     number of iterations used =            8  plain     mixing
     Exchange-correlation= PBESOL
                           (   1   4  10   8   0   0   0)

     celldm(1)=  15.266530  celldm(2)=   0.000000  celldm(3)=   0.000000
     celldm(4)=   0.000000  celldm(5)=   0.000000  celldm(6)=   0.000000

     crystal axes: (cart. coord. in units of alat)
               a(1) = (   1.000000   0.000000   0.000000 )  
               a(2) = (   0.000000   1.143204   0.000000 )  
               a(3) = (  -0.418829   0.000000   0.866892 )  

     reciprocal axes: (cart. coord. in units 2 pi/alat)
               b(1) = (  1.000000  0.000000  0.483139 )  
               b(2) = (  0.000000  0.874735  0.000000 )  
               b(3) = (  0.000000  0.000000  1.153547 )  


     PseudoPot. # 1 for Co read from file:
     /projects/p31387/PP/PBEsol_NC_SR/Co.upf
     MD5 check sum: da2f8eda8ae963674925720b0359a264
     Pseudo is Norm-conserving + core correction, Zval = 17.0
     Generated using ONCVPSP code by D. R. Hamann
     Using radial grid of 1388 points,  6 beta functions with: 
                l(1) =   0
                l(2) =   0
                l(3) =   1
                l(4) =   1
                l(5) =   2
                l(6) =   2

     PseudoPot. # 2 for Na read from file:
     /projects/p31387/PP/PBEsol_NC_SR/Na.upf
     MD5 check sum: 3cf33920b0d224cc73e566865edb8ea2
     Pseudo is Norm-conserving, Zval =  9.0
     Generated using ONCVPSP code by D. R. Hamann
     Using radial grid of 2016 points,  4 beta functions with: 
                l(1) =   0
                l(2) =   0
                l(3) =   1
                l(4) =   1

     PseudoPot. # 3 for O  read from file:
     /projects/p31387/PP/PBEsol_NC_SR/O.upf
     MD5 check sum: f226cbcd508cec715ff87a8f75a1dfba
     Pseudo is Norm-conserving + core correction, Zval =  6.0
     Generated using ONCVPSP code by D. R. Hamann
     Using radial grid of  936 points,  5 beta functions with: 
                l(1) =   0
                l(2) =   0
                l(3) =   1
                l(4) =   1
                l(5) =   2

     PseudoPot. # 4 for Se read from file:
     /projects/p31387/PP/PBEsol_NC_SR/Se.upf
     MD5 check sum: c42e2feaec75ccac7da27b7ff1240b9c
     Pseudo is Norm-conserving + core correction, Zval = 16.0
     Generated using ONCVPSP code by D. R. Hamann
     Using radial grid of 1198 points,  6 beta functions with: 
                l(1) =   0
                l(2) =   0
                l(3) =   1
                l(4) =   1
                l(5) =   2
                l(6) =   2

     atomic species   valence    mass     pseudopotential
        Co            17.00    58.93319     Co( 1.00)
        Na             9.00    22.99000     Na( 1.00)
        O              6.00    15.99940     O ( 1.00)
        Se            16.00    78.96000     Se( 1.00)

      2 Sym. Ops., with inversion, found


                                    s                        frac. trans.

      isym =  1     identity                                     

 cryst.   s( 1) = (     1          0          0      )
                  (     0          1          0      )
                  (     0          0          1      )

 cart.    s( 1) = (  1.0000000  0.0000000  0.0000000 )
                  (  0.0000000  1.0000000  0.0000000 )
                  (  0.0000000  0.0000000  1.0000000 )


      isym =  2     inversion                                    

 cryst.   s( 2) = (    -1          0          0      )
                  (     0         -1          0      )
                  (     0          0         -1      )

 cart.    s( 2) = ( -1.0000000  0.0000000  0.0000000 )
                  (  0.0000000 -1.0000000  0.0000000 )
                  (  0.0000000  0.0000000 -1.0000000 )


   Cartesian axes

     site n.     atom                  positions (alat units)
         1           Se  tau(   1) = (  -0.2147682   0.9460011   0.6386737  )
         2           Se  tau(   2) = (   0.5865245   0.3743992   0.6616637  )
         3           Se  tau(   3) = (   0.7959390   0.1972026   0.2282179  )
         4           Se  tau(   4) = (  -0.0053536   0.7688045   0.2052279  )
         5           Se  tau(   5) = (   0.0659170   0.2098922   0.5387125  )
         6           Se  tau(   6) = (   0.3058393   0.7814941   0.7616250  )
         7           Se  tau(   7) = (   0.5152538   0.9333115   0.3281792  )
         8           Se  tau(   8) = (   0.2753316   0.3617097   0.1052666  )
         9           Co  tau(   9) = (   0.5000000   0.0000000   0.0000000  )
        10           Co  tau(  10) = (   0.2905854   0.5716019   0.4334458  )
        11           Co  tau(  11) = (  -0.0727120   0.5822451   0.5860881  )
        12           Co  tau(  12) = (   0.4444683   0.0106432   0.7142493  )
        13           Co  tau(  13) = (   0.6538829   0.5609586   0.2808035  )
        14           Co  tau(  14) = (   0.1367026   1.1325605   0.1526423  )
        15           O   tau(  15) = (  -0.0354590   1.0493010   0.6607188  )
        16           O   tau(  16) = (   0.4072153   0.4776991   0.6396186  )
        17           O   tau(  17) = (   0.6166299   0.0939028   0.2061728  )
        18           O   tau(  18) = (   0.1739556   0.6655046   0.2272730  )
        19           O   tau(  19) = (  -0.1745800   0.7597732   0.7266025  )
        20           O   tau(  20) = (   0.5463363   0.1881713   0.5737349  )
        21           O   tau(  21) = (   0.7557509   0.3834305   0.1402891  )
        22           O   tau(  22) = (   0.0348345   0.9550324   0.2931567  )
        23           O   tau(  23) = (  -0.3380248   1.0304038   0.7873196  )
        24           O   tau(  24) = (   0.7097811   0.4588020   0.5130178  )
        25           O   tau(  25) = (   0.9191957   0.1127999   0.0795720  )
        26           O   tau(  26) = (  -0.1286102   0.6844018   0.3538738  )
        27           O   tau(  27) = (   0.0965834   0.4175780   0.5003872  )
        28           O   tau(  28) = (   0.2751728   0.9891799   0.7999502  )
        29           O   tau(  29) = (   0.4845874   0.7256257   0.3665044  )
        30           O   tau(  30) = (   0.3059980   0.1540238   0.0669414  )
        31           O   tau(  31) = (   0.1972582   0.1710004   0.7019135  )
        32           O   tau(  32) = (   0.1744981   0.7426023   0.5984239  )
        33           O   tau(  33) = (   0.3839126   0.9722033   0.1649781  )
        34           O   tau(  34) = (   0.4066728   0.4006015   0.2684677  )
        35           O   tau(  35) = (   0.1733956   0.1218541   0.3842670  )
        36           O   tau(  36) = (   0.6171898   0.6934560   0.0491788  )
        37           O   tau(  37) = (   0.4077752   1.0213496   0.4826246  )
        38           O   tau(  38) = (  -0.0360190   0.4497478   0.8177129  )
        39           Na  tau(  39) = (   0.3639167   0.7333652   0.0701315  )
        40           Na  tau(  40) = (   0.4266687   0.1617633   0.3633143  )
        41           Na  tau(  41) = (   0.2172541   0.4098385   0.7967601  )
        42           Na  tau(  42) = (   0.1545021   0.9814404   0.5035773  )

   Crystallographic axes

     site n.     atom                  positions (cryst. coord.)
         1           Se  tau(   1) = (  0.0938000  0.8275000  0.7367400  )
         2           Se  tau(   2) = (  0.9062000  0.3275000  0.7632600  )
         3           Se  tau(   3) = (  0.9062000  0.1725000  0.2632600  )
         4           Se  tau(   4) = (  0.0938000  0.6725000  0.2367400  )
         5           Se  tau(   5) = (  0.3261900  0.1836000  0.6214300  )
         6           Se  tau(   6) = (  0.6738100  0.6836000  0.8785700  )
         7           Se  tau(   7) = (  0.6738100  0.8164000  0.3785700  )
         8           Se  tau(   8) = (  0.3261900  0.3164000  0.1214300  )
         9           Co  tau(   9) = (  0.5000000  0.0000000  0.0000000  )
        10           Co  tau(  10) = (  0.5000000  0.5000000  0.5000000  )
        11           Co  tau(  11) = (  0.2104500  0.5093100  0.6760800  )
        12           Co  tau(  12) = (  0.7895500  0.0093100  0.8239200  )
        13           Co  tau(  13) = (  0.7895500  0.4906900  0.3239200  )
        14           Co  tau(  14) = (  0.2104500  0.9906900  0.1760800  )
        15           O   tau(  15) = (  0.2837600  0.9178600  0.7621700  )
        16           O   tau(  16) = (  0.7162400  0.4178600  0.7378300  )
        17           O   tau(  17) = (  0.7162400  0.0821400  0.2378300  )
        18           O   tau(  18) = (  0.2837600  0.5821400  0.2621700  )
        19           O   tau(  19) = (  0.1764700  0.6646000  0.8381700  )
        20           O   tau(  20) = (  0.8235300  0.1646000  0.6618300  )
        21           O   tau(  21) = (  0.8235300  0.3354000  0.1618300  )
        22           O   tau(  22) = (  0.1764700  0.8354000  0.3381700  )
        23           O   tau(  23) = (  0.0423600  0.9013300  0.9082100  )
        24           O   tau(  24) = (  0.9576400  0.4013300  0.5917900  )
        25           O   tau(  25) = (  0.9576400  0.0986700  0.0917900  )
        26           O   tau(  26) = (  0.0423600  0.5986700  0.4082100  )
        27           O   tau(  27) = (  0.3383400  0.3652700  0.5772200  )
        28           O   tau(  28) = (  0.6616600  0.8652700  0.9227800  )
        29           O   tau(  29) = (  0.6616600  0.6347300  0.4227800  )
        30           O   tau(  30) = (  0.3383400  0.1347300  0.0772200  )
        31           O   tau(  31) = (  0.5363800  0.1495800  0.8096900  )
        32           O   tau(  32) = (  0.4636200  0.6495800  0.6903100  )
        33           O   tau(  33) = (  0.4636200  0.8504200  0.1903100  )
        34           O   tau(  34) = (  0.5363800  0.3504200  0.3096900  )
        35           O   tau(  35) = (  0.3590500  0.1065900  0.4432700  )
        36           O   tau(  36) = (  0.6409500  0.6065900  0.0567300  )
        37           O   tau(  37) = (  0.6409500  0.8934100  0.5567300  )
        38           O   tau(  38) = (  0.3590500  0.3934100  0.9432700  )
        39           Na  tau(  39) = (  0.3978000  0.6415000  0.0809000  )
        40           Na  tau(  40) = (  0.6022000  0.1415000  0.4191000  )
        41           Na  tau(  41) = (  0.6022000  0.3585000  0.9191000  )
        42           Na  tau(  42) = (  0.3978000  0.8585000  0.5809000  )

     number of k points=   112  Marzari-Vanderbilt smearing, width (Ry)=  0.0010
                       cart. coord. in units 2pi/alat
        k(    1) = (   0.0000000   0.0000000   0.0000000), wk =   0.0092593
        k(    2) = (   0.0000000   0.0000000   0.1922578), wk =   0.0185185
        k(    3) = (   0.0000000   0.0000000   0.3845156), wk =   0.0185185
        k(    4) = (   0.0000000   0.0000000  -0.5767734), wk =   0.0092593
        k(    5) = (   0.0000000   0.1457891   0.0000000), wk =   0.0185185
        k(    6) = (   0.0000000   0.1457891   0.1922578), wk =   0.0185185
        k(    7) = (   0.0000000   0.1457891   0.3845156), wk =   0.0185185
        k(    8) = (   0.0000000   0.1457891  -0.5767734), wk =   0.0185185
        k(    9) = (   0.0000000   0.2915782   0.0000000), wk =   0.0185185
        k(   10) = (   0.0000000   0.2915782   0.1922578), wk =   0.0185185
        k(   11) = (   0.0000000   0.2915782   0.3845156), wk =   0.0185185
        k(   12) = (   0.0000000   0.2915782  -0.5767734), wk =   0.0185185
        k(   13) = (   0.0000000  -0.4373674   0.0000000), wk =   0.0092593
        k(   14) = (   0.0000000  -0.4373674   0.1922578), wk =   0.0185185
        k(   15) = (   0.0000000  -0.4373674   0.3845156), wk =   0.0185185
        k(   16) = (   0.0000000  -0.4373674  -0.5767734), wk =   0.0092593
        k(   17) = (   0.1666667   0.0000000   0.0805232), wk =   0.0185185
        k(   18) = (   0.1666667   0.0000000   0.2727810), wk =   0.0185185
        k(   19) = (   0.1666667   0.0000000   0.4650387), wk =   0.0185185
        k(   20) = (   0.1666667   0.0000000  -0.4962502), wk =   0.0185185
        k(   21) = (   0.1666667   0.0000000  -0.3039924), wk =   0.0185185
        k(   22) = (   0.1666667   0.0000000  -0.1117346), wk =   0.0185185
        k(   23) = (   0.1666667   0.1457891   0.0805232), wk =   0.0185185
        k(   24) = (   0.1666667   0.1457891   0.2727810), wk =   0.0185185
        k(   25) = (   0.1666667   0.1457891   0.4650387), wk =   0.0185185
        k(   26) = (   0.1666667   0.1457891  -0.4962502), wk =   0.0185185
        k(   27) = (   0.1666667   0.1457891  -0.3039924), wk =   0.0185185
        k(   28) = (   0.1666667   0.1457891  -0.1117346), wk =   0.0185185
        k(   29) = (   0.1666667   0.2915782   0.0805232), wk =   0.0185185
        k(   30) = (   0.1666667   0.2915782   0.2727810), wk =   0.0185185
        k(   31) = (   0.1666667   0.2915782   0.4650387), wk =   0.0185185
        k(   32) = (   0.1666667   0.2915782  -0.4962502), wk =   0.0185185
        k(   33) = (   0.1666667   0.2915782  -0.3039924), wk =   0.0185185
        k(   34) = (   0.1666667   0.2915782  -0.1117346), wk =   0.0185185
        k(   35) = (   0.1666667  -0.4373674   0.0805232), wk =   0.0185185
        k(   36) = (   0.1666667  -0.4373674   0.2727810), wk =   0.0185185
        k(   37) = (   0.1666667  -0.4373674   0.4650387), wk =   0.0185185
        k(   38) = (   0.1666667  -0.4373674  -0.4962502), wk =   0.0185185
        k(   39) = (   0.1666667  -0.4373674  -0.3039924), wk =   0.0185185
        k(   40) = (   0.1666667  -0.4373674  -0.1117346), wk =   0.0185185
        k(   41) = (   0.3333333   0.0000000   0.1610463), wk =   0.0185185
        k(   42) = (   0.3333333   0.0000000   0.3533041), wk =   0.0185185
        k(   43) = (   0.3333333   0.0000000   0.5455619), wk =   0.0185185
        k(   44) = (   0.3333333   0.0000000  -0.4157270), wk =   0.0185185
        k(   45) = (   0.3333333   0.0000000  -0.2234692), wk =   0.0185185
        k(   46) = (   0.3333333   0.0000000  -0.0312115), wk =   0.0185185
        k(   47) = (   0.3333333   0.1457891   0.1610463), wk =   0.0185185
        k(   48) = (   0.3333333   0.1457891   0.3533041), wk =   0.0185185
        k(   49) = (   0.3333333   0.1457891   0.5455619), wk =   0.0185185
        k(   50) = (   0.3333333   0.1457891  -0.4157270), wk =   0.0185185
        k(   51) = (   0.3333333   0.1457891  -0.2234692), wk =   0.0185185
        k(   52) = (   0.3333333   0.1457891  -0.0312115), wk =   0.0185185
        k(   53) = (   0.3333333   0.2915782   0.1610463), wk =   0.0185185
        k(   54) = (   0.3333333   0.2915782   0.3533041), wk =   0.0185185
        k(   55) = (   0.3333333   0.2915782   0.5455619), wk =   0.0185185
        k(   56) = (   0.3333333   0.2915782  -0.4157270), wk =   0.0185185
        k(   57) = (   0.3333333   0.2915782  -0.2234692), wk =   0.0185185
        k(   58) = (   0.3333333   0.2915782  -0.0312115), wk =   0.0185185
        k(   59) = (   0.3333333  -0.4373674   0.1610463), wk =   0.0185185
        k(   60) = (   0.3333333  -0.4373674   0.3533041), wk =   0.0185185
        k(   61) = (   0.3333333  -0.4373674   0.5455619), wk =   0.0185185
        k(   62) = (   0.3333333  -0.4373674  -0.4157270), wk =   0.0185185
        k(   63) = (   0.3333333  -0.4373674  -0.2234692), wk =   0.0185185
        k(   64) = (   0.3333333  -0.4373674  -0.0312115), wk =   0.0185185
        k(   65) = (  -0.5000000   0.0000000  -0.2415695), wk =   0.0092593
        k(   66) = (  -0.5000000   0.0000000  -0.0493117), wk =   0.0185185
        k(   67) = (  -0.5000000   0.0000000   0.1429461), wk =   0.0185185
        k(   68) = (  -0.5000000   0.0000000  -0.8183429), wk =   0.0092593
        k(   69) = (  -0.5000000   0.1457891  -0.2415695), wk =   0.0185185
        k(   70) = (  -0.5000000   0.1457891  -0.0493117), wk =   0.0185185
        k(   71) = (  -0.5000000   0.1457891   0.1429461), wk =   0.0185185
        k(   72) = (  -0.5000000   0.1457891  -0.8183429), wk =   0.0185185
        k(   73) = (  -0.5000000   0.2915782  -0.2415695), wk =   0.0185185
        k(   74) = (  -0.5000000   0.2915782  -0.0493117), wk =   0.0185185
        k(   75) = (  -0.5000000   0.2915782   0.1429461), wk =   0.0185185
        k(   76) = (  -0.5000000   0.2915782  -0.8183429), wk =   0.0185185
        k(   77) = (  -0.5000000  -0.4373674  -0.2415695), wk =   0.0092593
        k(   78) = (  -0.5000000  -0.4373674  -0.0493117), wk =   0.0185185
        k(   79) = (  -0.5000000  -0.4373674   0.1429461), wk =   0.0185185
        k(   80) = (  -0.5000000  -0.4373674  -0.8183429), wk =   0.0092593
        k(   81) = (   0.0000000   0.1457891  -0.1922578), wk =   0.0185185
        k(   82) = (   0.0000000   0.1457891  -0.3845156), wk =   0.0185185
        k(   83) = (   0.0000000   0.2915782  -0.1922578), wk =   0.0185185
        k(   84) = (   0.0000000   0.2915782  -0.3845156), wk =   0.0185185
        k(   85) = (  -0.1666667   0.1457891  -0.0805232), wk =   0.0185185
        k(   86) = (  -0.1666667   0.1457891  -0.2727810), wk =   0.0185185
        k(   87) = (  -0.1666667   0.1457891  -0.4650387), wk =   0.0185185
        k(   88) = (  -0.1666667   0.1457891   0.4962502), wk =   0.0185185
        k(   89) = (  -0.1666667   0.1457891   0.3039924), wk =   0.0185185
        k(   90) = (  -0.1666667   0.1457891   0.1117346), wk =   0.0185185
        k(   91) = (  -0.1666667   0.2915782  -0.0805232), wk =   0.0185185
        k(   92) = (  -0.1666667   0.2915782  -0.2727810), wk =   0.0185185
        k(   93) = (  -0.1666667   0.2915782  -0.4650387), wk =   0.0185185
        k(   94) = (  -0.1666667   0.2915782   0.4962502), wk =   0.0185185
        k(   95) = (  -0.1666667   0.2915782   0.3039924), wk =   0.0185185
        k(   96) = (  -0.1666667   0.2915782   0.1117346), wk =   0.0185185
        k(   97) = (  -0.3333333   0.1457891  -0.1610463), wk =   0.0185185
        k(   98) = (  -0.3333333   0.1457891  -0.3533041), wk =   0.0185185
        k(   99) = (  -0.3333333   0.1457891  -0.5455619), wk =   0.0185185
        k(  100) = (  -0.3333333   0.1457891   0.4157270), wk =   0.0185185
        k(  101) = (  -0.3333333   0.1457891   0.2234692), wk =   0.0185185
        k(  102) = (  -0.3333333   0.1457891   0.0312115), wk =   0.0185185
        k(  103) = (  -0.3333333   0.2915782  -0.1610463), wk =   0.0185185
        k(  104) = (  -0.3333333   0.2915782  -0.3533041), wk =   0.0185185
        k(  105) = (  -0.3333333   0.2915782  -0.5455619), wk =   0.0185185
        k(  106) = (  -0.3333333   0.2915782   0.4157270), wk =   0.0185185
        k(  107) = (  -0.3333333   0.2915782   0.2234692), wk =   0.0185185
        k(  108) = (  -0.3333333   0.2915782   0.0312115), wk =   0.0185185
        k(  109) = (   0.5000000   0.1457891   0.0493117), wk =   0.0185185
        k(  110) = (   0.5000000   0.1457891  -0.1429461), wk =   0.0185185
        k(  111) = (   0.5000000   0.2915782   0.0493117), wk =   0.0185185
        k(  112) = (   0.5000000   0.2915782  -0.1429461), wk =   0.0185185

                       cryst. coord.
        k(    1) = (   0.0000000   0.0000000   0.0000000), wk =   0.0092593
        k(    2) = (   0.0000000   0.0000000   0.1666667), wk =   0.0185185
        k(    3) = (   0.0000000   0.0000000   0.3333333), wk =   0.0185185
        k(    4) = (   0.0000000   0.0000000  -0.5000000), wk =   0.0092593
        k(    5) = (   0.0000000   0.1666667   0.0000000), wk =   0.0185185
        k(    6) = (   0.0000000   0.1666667   0.1666667), wk =   0.0185185
        k(    7) = (   0.0000000   0.1666667   0.3333333), wk =   0.0185185
        k(    8) = (   0.0000000   0.1666667  -0.5000000), wk =   0.0185185
        k(    9) = (   0.0000000   0.3333333   0.0000000), wk =   0.0185185
        k(   10) = (   0.0000000   0.3333333   0.1666667), wk =   0.0185185
        k(   11) = (   0.0000000   0.3333333   0.3333333), wk =   0.0185185
        k(   12) = (   0.0000000   0.3333333  -0.5000000), wk =   0.0185185
        k(   13) = (   0.0000000  -0.5000000   0.0000000), wk =   0.0092593
        k(   14) = (   0.0000000  -0.5000000   0.1666667), wk =   0.0185185
        k(   15) = (   0.0000000  -0.5000000   0.3333333), wk =   0.0185185
        k(   16) = (   0.0000000  -0.5000000  -0.5000000), wk =   0.0092593
        k(   17) = (   0.1666667   0.0000000   0.0000000), wk =   0.0185185
        k(   18) = (   0.1666667   0.0000000   0.1666667), wk =   0.0185185
        k(   19) = (   0.1666667   0.0000000   0.3333333), wk =   0.0185185
        k(   20) = (   0.1666667   0.0000000  -0.5000000), wk =   0.0185185
        k(   21) = (   0.1666667   0.0000000  -0.3333333), wk =   0.0185185
        k(   22) = (   0.1666667   0.0000000  -0.1666667), wk =   0.0185185
        k(   23) = (   0.1666667   0.1666667   0.0000000), wk =   0.0185185
        k(   24) = (   0.1666667   0.1666667   0.1666667), wk =   0.0185185
        k(   25) = (   0.1666667   0.1666667   0.3333333), wk =   0.0185185
        k(   26) = (   0.1666667   0.1666667  -0.5000000), wk =   0.0185185
        k(   27) = (   0.1666667   0.1666667  -0.3333333), wk =   0.0185185
        k(   28) = (   0.1666667   0.1666667  -0.1666667), wk =   0.0185185
        k(   29) = (   0.1666667   0.3333333   0.0000000), wk =   0.0185185
        k(   30) = (   0.1666667   0.3333333   0.1666667), wk =   0.0185185
        k(   31) = (   0.1666667   0.3333333   0.3333333), wk =   0.0185185
        k(   32) = (   0.1666667   0.3333333  -0.5000000), wk =   0.0185185
        k(   33) = (   0.1666667   0.3333333  -0.3333333), wk =   0.0185185
        k(   34) = (   0.1666667   0.3333333  -0.1666667), wk =   0.0185185
        k(   35) = (   0.1666667  -0.5000000   0.0000000), wk =   0.0185185
        k(   36) = (   0.1666667  -0.5000000   0.1666667), wk =   0.0185185
        k(   37) = (   0.1666667  -0.5000000   0.3333333), wk =   0.0185185
        k(   38) = (   0.1666667  -0.5000000  -0.5000000), wk =   0.0185185
        k(   39) = (   0.1666667  -0.5000000  -0.3333333), wk =   0.0185185
        k(   40) = (   0.1666667  -0.5000000  -0.1666667), wk =   0.0185185
        k(   41) = (   0.3333333   0.0000000   0.0000000), wk =   0.0185185
        k(   42) = (   0.3333333   0.0000000   0.1666667), wk =   0.0185185
        k(   43) = (   0.3333333   0.0000000   0.3333333), wk =   0.0185185
        k(   44) = (   0.3333333   0.0000000  -0.5000000), wk =   0.0185185
        k(   45) = (   0.3333333   0.0000000  -0.3333333), wk =   0.0185185
        k(   46) = (   0.3333333   0.0000000  -0.1666667), wk =   0.0185185
        k(   47) = (   0.3333333   0.1666667   0.0000000), wk =   0.0185185
        k(   48) = (   0.3333333   0.1666667   0.1666667), wk =   0.0185185
        k(   49) = (   0.3333333   0.1666667   0.3333333), wk =   0.0185185
        k(   50) = (   0.3333333   0.1666667  -0.5000000), wk =   0.0185185
        k(   51) = (   0.3333333   0.1666667  -0.3333333), wk =   0.0185185
        k(   52) = (   0.3333333   0.1666667  -0.1666667), wk =   0.0185185
        k(   53) = (   0.3333333   0.3333333   0.0000000), wk =   0.0185185
        k(   54) = (   0.3333333   0.3333333   0.1666667), wk =   0.0185185
        k(   55) = (   0.3333333   0.3333333   0.3333333), wk =   0.0185185
        k(   56) = (   0.3333333   0.3333333  -0.5000000), wk =   0.0185185
        k(   57) = (   0.3333333   0.3333333  -0.3333333), wk =   0.0185185
        k(   58) = (   0.3333333   0.3333333  -0.1666667), wk =   0.0185185
        k(   59) = (   0.3333333  -0.5000000   0.0000000), wk =   0.0185185
        k(   60) = (   0.3333333  -0.5000000   0.1666667), wk =   0.0185185
        k(   61) = (   0.3333333  -0.5000000   0.3333333), wk =   0.0185185
        k(   62) = (   0.3333333  -0.5000000  -0.5000000), wk =   0.0185185
        k(   63) = (   0.3333333  -0.5000000  -0.3333333), wk =   0.0185185
        k(   64) = (   0.3333333  -0.5000000  -0.1666667), wk =   0.0185185
        k(   65) = (  -0.5000000   0.0000000   0.0000000), wk =   0.0092593
        k(   66) = (  -0.5000000   0.0000000   0.1666667), wk =   0.0185185
        k(   67) = (  -0.5000000   0.0000000   0.3333333), wk =   0.0185185
        k(   68) = (  -0.5000000   0.0000000  -0.5000000), wk =   0.0092593
        k(   69) = (  -0.5000000   0.1666667   0.0000000), wk =   0.0185185
        k(   70) = (  -0.5000000   0.1666667   0.1666667), wk =   0.0185185
        k(   71) = (  -0.5000000   0.1666667   0.3333333), wk =   0.0185185
        k(   72) = (  -0.5000000   0.1666667  -0.5000000), wk =   0.0185185
        k(   73) = (  -0.5000000   0.3333333   0.0000000), wk =   0.0185185
        k(   74) = (  -0.5000000   0.3333333   0.1666667), wk =   0.0185185
        k(   75) = (  -0.5000000   0.3333333   0.3333333), wk =   0.0185185
        k(   76) = (  -0.5000000   0.3333333  -0.5000000), wk =   0.0185185
        k(   77) = (  -0.5000000  -0.5000000   0.0000000), wk =   0.0092593
        k(   78) = (  -0.5000000  -0.5000000   0.1666667), wk =   0.0185185
        k(   79) = (  -0.5000000  -0.5000000   0.3333333), wk =   0.0185185
        k(   80) = (  -0.5000000  -0.5000000  -0.5000000), wk =   0.0092593
        k(   81) = (   0.0000000   0.1666667  -0.1666667), wk =   0.0185185
        k(   82) = (   0.0000000   0.1666667  -0.3333333), wk =   0.0185185
        k(   83) = (   0.0000000   0.3333333  -0.1666667), wk =   0.0185185
        k(   84) = (   0.0000000   0.3333333  -0.3333333), wk =   0.0185185
        k(   85) = (  -0.1666667   0.1666667   0.0000000), wk =   0.0185185
        k(   86) = (  -0.1666667   0.1666667  -0.1666667), wk =   0.0185185
        k(   87) = (  -0.1666667   0.1666667  -0.3333333), wk =   0.0185185
        k(   88) = (  -0.1666667   0.1666667   0.5000000), wk =   0.0185185
        k(   89) = (  -0.1666667   0.1666667   0.3333333), wk =   0.0185185
        k(   90) = (  -0.1666667   0.1666667   0.1666667), wk =   0.0185185
        k(   91) = (  -0.1666667   0.3333333   0.0000000), wk =   0.0185185
        k(   92) = (  -0.1666667   0.3333333  -0.1666667), wk =   0.0185185
        k(   93) = (  -0.1666667   0.3333333  -0.3333333), wk =   0.0185185
        k(   94) = (  -0.1666667   0.3333333   0.5000000), wk =   0.0185185
        k(   95) = (  -0.1666667   0.3333333   0.3333333), wk =   0.0185185
        k(   96) = (  -0.1666667   0.3333333   0.1666667), wk =   0.0185185
        k(   97) = (  -0.3333333   0.1666667   0.0000000), wk =   0.0185185
        k(   98) = (  -0.3333333   0.1666667  -0.1666667), wk =   0.0185185
        k(   99) = (  -0.3333333   0.1666667  -0.3333333), wk =   0.0185185
        k(  100) = (  -0.3333333   0.1666667   0.5000000), wk =   0.0185185
        k(  101) = (  -0.3333333   0.1666667   0.3333333), wk =   0.0185185
        k(  102) = (  -0.3333333   0.1666667   0.1666667), wk =   0.0185185
        k(  103) = (  -0.3333333   0.3333333   0.0000000), wk =   0.0185185
        k(  104) = (  -0.3333333   0.3333333  -0.1666667), wk =   0.0185185
        k(  105) = (  -0.3333333   0.3333333  -0.3333333), wk =   0.0185185
        k(  106) = (  -0.3333333   0.3333333   0.5000000), wk =   0.0185185
        k(  107) = (  -0.3333333   0.3333333   0.3333333), wk =   0.0185185
        k(  108) = (  -0.3333333   0.3333333   0.1666667), wk =   0.0185185
        k(  109) = (   0.5000000   0.1666667  -0.1666667), wk =   0.0185185
        k(  110) = (   0.5000000   0.1666667  -0.3333333), wk =   0.0185185
        k(  111) = (   0.5000000   0.3333333  -0.1666667), wk =   0.0185185
        k(  112) = (   0.5000000   0.3333333  -0.3333333), wk =   0.0185185

     Dense  grid:   476443 G-vectors     FFT dimensions: ( 100, 120,  96)

     Dynamical RAM for                 wfc:      12.62 MB

     Dynamical RAM for     wfc (w. buffer):    1425.95 MB

     Dynamical RAM for           str. fact:       0.81 MB

     Dynamical RAM for           local pot:       0.00 MB

     Dynamical RAM for          nlocal pot:      15.04 MB

     Dynamical RAM for                qrad:       6.42 MB

     Dynamical RAM for          rho,v,vnew:       1.43 MB

     Dynamical RAM for               rhoin:       0.48 MB

     Dynamical RAM for            rho*nmix:       3.23 MB

     Dynamical RAM for           G-vectors:       0.86 MB

     Dynamical RAM for          h,s,v(r/c):       1.83 MB

     Dynamical RAM for          <psi|beta>:       4.55 MB

     Dynamical RAM for                 psi:      25.24 MB

     Dynamical RAM for                hpsi:      25.24 MB

     Dynamical RAM for      wfcinit/wfcrot:      30.96 MB

     Estimated static dynamical RAM per process >       1.42 GB

     Estimated max dynamical RAM per process >       1.48 GB

     Estimated total dynamical RAM >      53.21 GB

     Initial potential from superposition of free atoms

     starting charge     409.9721, renormalised to     410.0000
     Starting wfcs are  248 randomized atomic wfcs +  252 random wfcs

     total cpu time spent up to now is       79.7 secs

     per-process dynamical memory:  1677.1 Mb

     Self-consistent Calculation

     iteration #  1     ecut=   100.00 Ry     beta= 0.20
     Davidson diagonalization with overlap

---- Real-time Memory Report at c_bands before calling an iterative solver
          1705 MiB given to the printing process from OS
          1637 MiB allocation reported by mallinfo(arena+hblkhd)
        191724 MiB available memory on the node where the printing process lives
------------------
     c_bands:  1 eigenvalues not converged
     c_bands:  1 eigenvalues not converged
     c_bands:  2 eigenvalues not converged
     c_bands:  2 eigenvalues not converged
     c_bands:  1 eigenvalues not converged
     c_bands:  1 eigenvalues not converged
     c_bands:  1 eigenvalues not converged
     c_bands:  1 eigenvalues not converged
     c_bands:  1 eigenvalues not converged
     c_bands:  1 eigenvalues not converged
     c_bands:  1 eigenvalues not converged
     c_bands:  1 eigenvalues not converged
     c_bands:  1 eigenvalues not converged
     c_bands:  2 eigenvalues not converged
     c_bands:  1 eigenvalues not converged
     c_bands:  2 eigenvalues not converged
     c_bands:  1 eigenvalues not converged
     c_bands:  1 eigenvalues not converged
     c_bands:  1 eigenvalues not converged
     c_bands:  1 eigenvalues not converged
     c_bands:  2 eigenvalues not converged
     c_bands:  1 eigenvalues not converged
     c_bands:  2 eigenvalues not converged
     c_bands:  1 eigenvalues not converged
     c_bands:  1 eigenvalues not converged
     c_bands:  2 eigenvalues not converged
     c_bands:  1 eigenvalues not converged
     c_bands:  1 eigenvalues not converged
     c_bands:  2 eigenvalues not converged
     c_bands:  1 eigenvalues not converged
     c_bands:  1 eigenvalues not converged
     c_bands:  1 eigenvalues not converged
     c_bands:  2 eigenvalues not converged
     c_bands:  2 eigenvalues not converged
     c_bands:  2 eigenvalues not converged
     c_bands:  2 eigenvalues not converged
     c_bands:  1 eigenvalues not converged
     c_bands:  2 eigenvalues not converged
     c_bands:  1 eigenvalues not converged
     c_bands:  1 eigenvalues not converged
     c_bands:  1 eigenvalues not converged
     c_bands:  1 eigenvalues not converged
     c_bands:  1 eigenvalues not converged
     c_bands:  1 eigenvalues not converged
     c_bands:  2 eigenvalues not converged
     c_bands:  1 eigenvalues not converged
     c_bands:  1 eigenvalues not converged
     c_bands:  1 eigenvalues not converged
     c_bands:  1 eigenvalues not converged
     c_bands:  1 eigenvalues not converged
     c_bands:  1 eigenvalues not converged
     c_bands:  1 eigenvalues not converged
     c_bands:  2 eigenvalues not converged
     c_bands:  1 eigenvalues not converged
     c_bands:  1 eigenvalues not converged
     c_bands:  1 eigenvalues not converged
     c_bands:  3 eigenvalues not converged
     c_bands:  2 eigenvalues not converged
     c_bands:  2 eigenvalues not converged
     c_bands:  1 eigenvalues not converged
     c_bands:  1 eigenvalues not converged
     ethr =  5.00E-06,  avg # of iterations = 19.8

     total cpu time spent up to now is     1635.7 secs

     total energy              =   -4926.15239039 Ry
     estimated scf accuracy    <      10.49279370 Ry

     iteration #  2     ecut=   100.00 Ry     beta= 0.20
     Davidson diagonalization with overlap

---- Real-time Memory Report at c_bands before calling an iterative solver
          1751 MiB given to the printing process from OS
          1637 MiB allocation reported by mallinfo(arena+hblkhd)
        191592 MiB available memory on the node where the printing process lives
------------------
     ethr =  2.56E-03,  avg # of iterations =  2.0

     total cpu time spent up to now is     1914.6 secs

     total energy              =   -4925.24965046 Ry
     estimated scf accuracy    <      18.13576972 Ry

     iteration #  3     ecut=   100.00 Ry     beta= 0.20
     Davidson diagonalization with overlap

---- Real-time Memory Report at c_bands before calling an iterative solver
          1752 MiB given to the printing process from OS
          1637 MiB allocation reported by mallinfo(arena+hblkhd)
        191546 MiB available memory on the node where the printing process lives
------------------
     ethr =  2.56E-03,  avg # of iterations =  2.0

     total cpu time spent up to now is     2186.7 secs

     total energy              =   -4925.09970689 Ry
     estimated scf accuracy    <      63.67712619 Ry

     iteration #  4     ecut=   100.00 Ry     beta= 0.20
     Davidson diagonalization with overlap

---- Real-time Memory Report at c_bands before calling an iterative solver
          1753 MiB given to the printing process from OS
          1637 MiB allocation reported by mallinfo(arena+hblkhd)
        191520 MiB available memory on the node where the printing process lives
------------------
     ethr =  2.56E-03,  avg # of iterations =  1.1

     total cpu time spent up to now is     2423.2 secs

     total energy              =   -4926.51457557 Ry
     estimated scf accuracy    <       0.90779426 Ry

     iteration #  5     ecut=   100.00 Ry     beta= 0.20
     Davidson diagonalization with overlap

---- Real-time Memory Report at c_bands before calling an iterative solver
          1757 MiB given to the printing process from OS
          1642 MiB allocation reported by mallinfo(arena+hblkhd)
        191403 MiB available memory on the node where the printing process lives
------------------
     c_bands:  1 eigenvalues not converged
     c_bands:  2 eigenvalues not converged
     c_bands:  1 eigenvalues not converged
     ethr =  2.21E-04,  avg # of iterations = 10.5

     total cpu time spent up to now is     2824.3 secs

     total energy              =   -4926.50922317 Ry
     estimated scf accuracy    <       0.42911064 Ry

     iteration #  6     ecut=   100.00 Ry     beta= 0.20
     Davidson diagonalization with overlap

---- Real-time Memory Report at c_bands before calling an iterative solver
          1758 MiB given to the printing process from OS
          1642 MiB allocation reported by mallinfo(arena+hblkhd)
        191395 MiB available memory on the node where the printing process lives
------------------
     c_bands:  1 eigenvalues not converged
     c_bands:  1 eigenvalues not converged
     ethr =  1.05E-04,  avg # of iterations =  3.5

     total cpu time spent up to now is     3114.4 secs

     total energy              =   -4926.47597513 Ry
     estimated scf accuracy    <       0.17658449 Ry

     iteration #  7     ecut=   100.00 Ry     beta= 0.20
     Davidson diagonalization with overlap

---- Real-time Memory Report at c_bands before calling an iterative solver
          1762 MiB given to the printing process from OS
          1642 MiB allocation reported by mallinfo(arena+hblkhd)
        191384 MiB available memory on the node where the printing process lives
------------------
     c_bands:  1 eigenvalues not converged
     c_bands:  1 eigenvalues not converged
     c_bands:  1 eigenvalues not converged
     c_bands:  1 eigenvalues not converged
     c_bands:  1 eigenvalues not converged
     c_bands:  1 eigenvalues not converged
     c_bands:  1 eigenvalues not converged
     c_bands:  1 eigenvalues not converged
     c_bands:  2 eigenvalues not converged
     ethr =  4.31E-05,  avg # of iterations = 10.3

     total cpu time spent up to now is     3519.5 secs

     total energy              =   -4926.44258174 Ry
     estimated scf accuracy    <       5.11701862 Ry

     iteration #  8     ecut=   100.00 Ry     beta= 0.20
     Davidson diagonalization with overlap

---- Real-time Memory Report at c_bands before calling an iterative solver
          1763 MiB given to the printing process from OS
          1642 MiB allocation reported by mallinfo(arena+hblkhd)
        191375 MiB available memory on the node where the printing process lives
------------------
     ethr =  4.31E-05,  avg # of iterations =  2.2

     total cpu time spent up to now is     3794.5 secs

     total energy              =   -4926.46631138 Ry
     estimated scf accuracy    <       0.96731870 Ry

     iteration #  9     ecut=   100.00 Ry     beta= 0.20
     Davidson diagonalization with overlap

---- Real-time Memory Report at c_bands before calling an iterative solver
          1763 MiB given to the printing process from OS
          1642 MiB allocation reported by mallinfo(arena+hblkhd)
        191364 MiB available memory on the node where the printing process lives
------------------
     ethr =  4.31E-05,  avg # of iterations =  1.1

     total cpu time spent up to now is     4031.5 secs

     total energy              =   -4926.45292751 Ry
     estimated scf accuracy    <       0.99978734 Ry

     iteration # 10     ecut=   100.00 Ry     beta= 0.20
     Davidson diagonalization with overlap

---- Real-time Memory Report at c_bands before calling an iterative solver
          1763 MiB given to the printing process from OS
          1642 MiB allocation reported by mallinfo(arena+hblkhd)
        191350 MiB available memory on the node where the printing process lives
------------------
     ethr =  4.31E-05,  avg # of iterations =  1.0

     total cpu time spent up to now is     4265.6 secs

     total energy              =   -4926.47198424 Ry
     estimated scf accuracy    <       0.24347606 Ry

     iteration # 11     ecut=   100.00 Ry     beta= 0.20
     Davidson diagonalization with overlap

---- Real-time Memory Report at c_bands before calling an iterative solver
          1763 MiB given to the printing process from OS
          1642 MiB allocation reported by mallinfo(arena+hblkhd)
        191329 MiB available memory on the node where the printing process lives
------------------
     ethr =  4.31E-05,  avg # of iterations =  1.0

     total cpu time spent up to now is     4499.2 secs

     total energy              =   -4926.47375478 Ry
     estimated scf accuracy    <       0.02047263 Ry

     iteration # 12     ecut=   100.00 Ry     beta= 0.20
     Davidson diagonalization with overlap

---- Real-time Memory Report at c_bands before calling an iterative solver
          1763 MiB given to the printing process from OS
          1642 MiB allocation reported by mallinfo(arena+hblkhd)
        191327 MiB available memory on the node where the printing process lives
------------------
     c_bands:  1 eigenvalues not converged
     c_bands:  1 eigenvalues not converged
     c_bands:  1 eigenvalues not converged
     c_bands:  1 eigenvalues not converged
     ethr =  4.99E-06,  avg # of iterations =  5.4

     total cpu time spent up to now is     4815.7 secs

     total energy              =   -4926.47360443 Ry
     estimated scf accuracy    <       0.00634642 Ry

     iteration # 13     ecut=   100.00 Ry     beta= 0.20
     Davidson diagonalization with overlap

---- Real-time Memory Report at c_bands before calling an iterative solver
          1764 MiB given to the printing process from OS
          1642 MiB allocation reported by mallinfo(arena+hblkhd)
        191322 MiB available memory on the node where the printing process lives
------------------
     c_bands:  1 eigenvalues not converged
     c_bands:  1 eigenvalues not converged
     c_bands:  1 eigenvalues not converged
     c_bands:  1 eigenvalues not converged
     c_bands:  1 eigenvalues not converged
     c_bands:  1 eigenvalues not converged
     c_bands:  1 eigenvalues not converged
     c_bands:  2 eigenvalues not converged
     c_bands:  1 eigenvalues not converged
     c_bands:  1 eigenvalues not converged
     c_bands:  2 eigenvalues not converged
     c_bands:  1 eigenvalues not converged
     c_bands:  1 eigenvalues not converged
     c_bands:  1 eigenvalues not converged
     c_bands:  1 eigenvalues not converged
     c_bands:  1 eigenvalues not converged
     c_bands:  1 eigenvalues not converged
     c_bands:  1 eigenvalues not converged
     ethr =  1.55E-06,  avg # of iterations = 12.0

     total cpu time spent up to now is     5226.7 secs

     total energy              =   -4926.47371560 Ry
     estimated scf accuracy    <       0.00093811 Ry

     iteration # 14     ecut=   100.00 Ry     beta= 0.20
     Davidson diagonalization with overlap

---- Real-time Memory Report at c_bands before calling an iterative solver
          1764 MiB given to the printing process from OS
          1642 MiB allocation reported by mallinfo(arena+hblkhd)
        191321 MiB available memory on the node where the printing process lives
------------------
     c_bands:  1 eigenvalues not converged
     c_bands:  1 eigenvalues not converged
     c_bands:  1 eigenvalues not converged
     c_bands:  1 eigenvalues not converged
     c_bands:  1 eigenvalues not converged
     c_bands:  1 eigenvalues not converged
     c_bands:  2 eigenvalues not converged
     c_bands:  1 eigenvalues not converged
     c_bands:  1 eigenvalues not converged
     c_bands:  1 eigenvalues not converged
     ethr =  2.29E-07,  avg # of iterations = 11.7

     total cpu time spent up to now is     5649.2 secs

     total energy              =   -4926.47373655 Ry
     estimated scf accuracy    <       0.00008443 Ry

     iteration # 15     ecut=   100.00 Ry     beta= 0.20
     Davidson diagonalization with overlap

---- Real-time Memory Report at c_bands before calling an iterative solver
          1764 MiB given to the printing process from OS
          1642 MiB allocation reported by mallinfo(arena+hblkhd)
        191318 MiB available memory on the node where the printing process lives
------------------
     c_bands:  1 eigenvalues not converged
     c_bands:  1 eigenvalues not converged
     c_bands:  1 eigenvalues not converged
     c_bands:  1 eigenvalues not converged
     c_bands:  1 eigenvalues not converged
     c_bands:  1 eigenvalues not converged
     c_bands:  1 eigenvalues not converged
     c_bands:  2 eigenvalues not converged
     c_bands:  1 eigenvalues not converged
     c_bands:  1 eigenvalues not converged
     c_bands:  1 eigenvalues not converged
     c_bands:  1 eigenvalues not converged
     c_bands:  1 eigenvalues not converged
     c_bands:  1 eigenvalues not converged
     ethr =  2.06E-08,  avg # of iterations = 12.8

     total cpu time spent up to now is     6099.9 secs

     total energy              =   -4926.47373083 Ry
     estimated scf accuracy    <       0.00030469 Ry

     iteration # 16     ecut=   100.00 Ry     beta= 0.20
     Davidson diagonalization with overlap

---- Real-time Memory Report at c_bands before calling an iterative solver
          1765 MiB given to the printing process from OS
          1642 MiB allocation reported by mallinfo(arena+hblkhd)
        191308 MiB available memory on the node where the printing process lives
------------------
     c_bands:  1 eigenvalues not converged
     c_bands:  1 eigenvalues not converged
     c_bands:  1 eigenvalues not converged
     ethr =  2.06E-08,  avg # of iterations =  1.9

     total cpu time spent up to now is     6352.7 secs

     total energy              =   -4926.47373468 Ry
     estimated scf accuracy    <       0.00000226 Ry

     iteration # 17     ecut=   100.00 Ry     beta= 0.20
     Davidson diagonalization with overlap

---- Real-time Memory Report at c_bands before calling an iterative solver
          1765 MiB given to the printing process from OS
          1642 MiB allocation reported by mallinfo(arena+hblkhd)
        191297 MiB available memory on the node where the printing process lives
------------------
     c_bands:  1 eigenvalues not converged
     c_bands:  1 eigenvalues not converged
     c_bands:  1 eigenvalues not converged
     c_bands:  1 eigenvalues not converged
     c_bands:  1 eigenvalues not converged
     c_bands:  1 eigenvalues not converged
     c_bands:  1 eigenvalues not converged
     ethr =  5.51E-10,  avg # of iterations = 12.6

     total cpu time spent up to now is     6898.8 secs

     total energy              =   -4926.47373474 Ry
     estimated scf accuracy    <       0.00000282 Ry

     iteration # 18     ecut=   100.00 Ry     beta= 0.20
     Davidson diagonalization with overlap

---- Real-time Memory Report at c_bands before calling an iterative solver
          1765 MiB given to the printing process from OS
          1642 MiB allocation reported by mallinfo(arena+hblkhd)
        191294 MiB available memory on the node where the printing process lives
------------------
     c_bands:  1 eigenvalues not converged
     ethr =  5.51E-10,  avg # of iterations =  1.3

     total cpu time spent up to now is     7137.0 secs

     total energy              =   -4926.47373480 Ry
     estimated scf accuracy    <       0.00000219 Ry

     iteration # 19     ecut=   100.00 Ry     beta= 0.20
     Davidson diagonalization with overlap

---- Real-time Memory Report at c_bands before calling an iterative solver
          1765 MiB given to the printing process from OS
          1642 MiB allocation reported by mallinfo(arena+hblkhd)
        191292 MiB available memory on the node where the printing process lives
------------------
     c_bands:  1 eigenvalues not converged
     ethr =  5.33E-10,  avg # of iterations =  1.2

     total cpu time spent up to now is     7373.1 secs

     total energy              =   -4926.47373481 Ry
     estimated scf accuracy    <       0.00000159 Ry

     iteration # 20     ecut=   100.00 Ry     beta= 0.20
     Davidson diagonalization with overlap

---- Real-time Memory Report at c_bands before calling an iterative solver
          1765 MiB given to the printing process from OS
          1642 MiB allocation reported by mallinfo(arena+hblkhd)
        191291 MiB available memory on the node where the printing process lives
------------------
     ethr =  3.87E-10,  avg # of iterations =  1.1

     total cpu time spent up to now is     7608.5 secs

     End of self-consistent calculation

          k = 0.0000 0.0000 0.0000 ( 59589 PWs)   bands (ev):

   -85.5904 -85.5902 -85.2938 -85.2936 -85.2936 -85.2935 -49.1081 -49.1079
   -48.9989 -48.9987 -48.9258 -48.9257 -48.9101 -48.9100 -48.9100 -48.9099
   -48.6982 -48.6980 -48.6970 -48.6969 -48.5591 -48.5590 -48.5570 -48.5569
   -42.0895 -42.0895 -42.0895 -42.0895 -42.0803 -42.0803 -42.0803 -42.0803
   -42.0351 -42.0351 -42.0351 -42.0351 -42.0311 -42.0311 -42.0310 -42.0310
   -41.9476 -41.9476 -41.9476 -41.9476 -41.9318 -41.9318 -41.9318 -41.9318
   -41.9003 -41.9003 -41.9002 -41.9002 -41.8853 -41.8853 -41.8853 -41.8853
   -41.8778 -41.8778 -41.8778 -41.8778 -41.8350 -41.8350 -41.8350 -41.8350
   -40.8816 -40.8815 -40.8807 -40.8806 -13.8338 -13.7602 -13.7377 -13.7340
   -13.7293 -13.6281 -13.6011 -13.4469 -13.2802 -13.2530 -13.2392 -13.2253
   -13.1760 -13.0396 -13.0189 -12.9413 -12.8146 -12.8080 -12.7626 -12.7457
   -11.1138 -10.8860 -10.8647 -10.8444 -10.8368 -10.7331 -10.7252 -10.7205
   -10.6721 -10.5878 -10.5575 -10.5245 -10.5117 -10.5087 -10.4590 -10.4209
    -3.8915  -3.6945  -3.6249  -3.4804  -3.4607  -3.3467  -3.2058  -3.0833
     0.4226   0.6092   0.7454   0.8757   0.9339   0.9474   1.0512   1.0717
     1.0966   1.2943   1.3979   1.4831   1.5103   1.5212   1.5357   1.5371
     1.7020   1.7384   1.9034   1.9387   2.0005   2.1490   2.1809   2.4033
     3.3937   3.4882   3.6073   3.6892   3.6904   3.7444   3.8314   3.8341
     3.9045   3.9888   4.0293   4.1697   4.1769   4.3080   4.3208   4.3721
     4.4016   4.4623   4.5183   4.5361   4.5982   4.7018   4.8083   4.8847
     4.9373   4.9819   5.1633   5.1891   5.2477   5.2710   5.2918   5.3349
     5.4222   5.5152   5.6374   5.7442   5.7583   5.7990   5.8158   5.8534
     5.9069   5.9273   5.9426   5.9982   6.0422   6.1738   6.2782   6.6767
     8.0099   8.1258   8.2360   8.2592   8.2966   8.3198   8.3791   8.3961
     8.4317   8.4695   8.4835   8.4912   8.5223   8.5806   8.6032   8.6350
     8.6722   8.7674   8.8089   8.9632   8.9662   9.0204   9.1439   9.2127
     9.2365   9.3905   9.4158   9.4379   9.4415   9.5612  11.5422  11.7818
    11.8220  11.8814  11.9908  12.0126  12.2450  12.3711  12.4044  12.5119
    12.5805  12.6053  12.6175  12.9380  12.9607  13.0068  13.1234  13.4985
    13.6088  13.7847  14.1813  14.2009  14.3852  14.4019  14.6309  15.6774
    16.0550  16.3655  16.3855  16.6061  16.6875  17.1357  17.1362  17.2744
    17.4328  17.4387  17.4677  17.5098  17.5398  18.0200  18.0676  18.1606
    18.3470  18.6601  18.6676  18.7617  18.8981  18.9248  19.0678  19.0710
    19.1001  19.1339  19.4536  19.5377  19.6081  19.6543  20.0177  20.0569
    20.0682  20.2221  20.4561  20.4621  20.6258  20.8225  20.8446  20.9513
    21.1814  21.1945  21.2544  21.4754  21.4889  21.5811  21.6745  21.7420
    21.7611  22.0186  22.0463  22.1313  22.1841  22.3858  22.4157  22.4398
    22.5631  22.7995  22.9526  23.1797  23.2801  23.3099  23.3354  23.4338
    23.7259  23.9005  24.1329  24.2166  24.2319  24.2716  24.3312  24.4947
    24.5665  24.7770  24.8181  24.8186  25.1354  25.1373  25.5087  25.5267
    25.7165  25.7640  26.0699  26.2366  26.3571  26.3719  26.4497  26.5506
    26.5582  26.6304  26.9315  26.9984  27.0094  27.2229  27.4197  27.5772
    27.7000  27.7903  27.8340  28.0145  28.1274  28.1298  28.1720  28.4548
    28.4749  28.5139  28.9563  29.0504  29.1031  29.1853  29.2795  29.4244
    29.4457  29.6915  29.9191  29.9453  29.9501  30.0134  30.1188  30.1638
    30.2807  30.3639  30.6838  30.7738  30.7942  31.0149  31.0744  31.0920
    31.5127  31.5792  31.6375  31.7425  31.8496  31.8549  31.9527  32.0290
    32.1037  32.1866  32.2975  32.3456  32.3896  32.4357  32.6106  32.7574
    32.7613  32.9920  33.0888  33.1740  33.3028  33.4246  33.4859  33.5221
    33.7687  33.7737  33.8976  33.9745  34.0448  34.1111  34.1775  34.2570
    34.3176  34.4454  34.6596  34.6873  34.7228  34.7715  34.9883  35.0271
    35.2085  35.2392  35.2471  35.3864  35.4250  35.5854  35.6255  35.7159
    35.8592  35.9711  36.0985  36.2003  36.2372  36.2733  36.3970  36.4030
    36.4837  36.5986  36.8598  36.8664  36.8691  36.9089  37.0099  37.0666
    37.1754  37.2551  37.5171  37.6145  37.6226  37.6465  37.7070  37.8562
    37.9243  38.1349  38.2595  38.3244  38.3751  38.4116  38.4452  38.4955
    38.5855  38.5998  38.8593  38.8744  38.8774  39.0708  39.2218  39.2550
    39.3453  39.3592  39.4606  39.5634  39.7007  39.7872  39.8935  39.9817
    40.0544  40.1639  40.2122  40.2609  40.2633  40.3071  40.6231  40.6590
    40.7116  40.7174  40.8265  40.8788  40.9819  40.9835  41.0496  41.0743
    41.1522  41.1887  41.3129  41.3301  41.3780  41.5412  41.6129  41.6599
    41.7130  41.8421  41.9698  42.0121  42.1349  42.1816  42.2836  42.3408
    42.5089  42.5818  42.6112  42.6679

     occupation numbers 
     1.0000   1.0000   1.0000   1.0000   1.0000   1.0000   1.0000   1.0000
     1.0000   1.0000   1.0000   1.0000   1.0000   1.0000   1.0000   1.0000
     1.0000   1.0000   1.0000   1.0000   1.0000   1.0000   1.0000   1.0000
     1.0000   1.0000   1.0000   1.0000   1.0000   1.0000   1.0000   1.0000
     1.0000   1.0000   1.0000   1.0000   1.0000   1.0000   1.0000   1.0000
     1.0000   1.0000   1.0000   1.0000   1.0000   1.0000   1.0000   1.0000
     1.0000   1.0000   1.0000   1.0000   1.0000   1.0000   1.0000   1.0000
     1.0000   1.0000   1.0000   1.0000   1.0000   1.0000   1.0000   1.0000
     1.0000   1.0000   1.0000   1.0000   1.0000   1.0000   1.0000   1.0000
     1.0000   1.0000   1.0000   1.0000   1.0000   1.0000   1.0000   1.0000
     1.0000   1.0000   1.0000   1.0000   1.0000   1.0000   1.0000   1.0000
     1.0000   1.0000   1.0000   1.0000   1.0000   1.0000   1.0000   1.0000
     1.0000   1.0000   1.0000   1.0000   1.0000   1.0000   1.0000   1.0000
     1.0000   1.0000   1.0000   1.0000   1.0000   1.0000   1.0000   1.0000
     1.0000   1.0000   1.0000   1.0000   1.0000   1.0000   1.0000   1.0000
     1.0000   1.0000   1.0000   1.0000   1.0000   1.0000   1.0000   1.0000
     1.0000   1.0000   1.0000   1.0000   1.0000   1.0000   1.0000   1.0000
     1.0000   1.0000   1.0000   1.0000   1.0000   1.0000   1.0000   1.0000
     1.0000   1.0000   1.0000   1.0000   1.0000   1.0000   1.0000   1.0000
     1.0000   1.0000   1.0000   1.0000   1.0000   1.0000   1.0000   1.0000
     1.0000   1.0000   1.0000   1.0000   1.0000   1.0000   1.0000   1.0000
     1.0000   1.0000   1.0000   1.0000   1.0000   1.0000   1.0000   1.0000
     1.0000   1.0000   1.0000   1.0000   1.0000   1.0000   1.0000   1.0000
     1.0000   1.0000   1.0000   1.0000   1.0000   1.0000   1.0000   1.0000
     1.0000   1.0000   1.0000   1.0000   1.0000   1.0000   1.0000   1.0000
     1.0000   1.0000   1.0000   1.0000   1.0000   0.9236   0.0000   0.0000
     0.0000   0.0000   0.0000   0.0000   0.0000   0.0000   0.0000   0.0000
     0.0000   0.0000   0.0000   0.0000   0.0000   0.0000   0.0000   0.0000
     0.0000   0.0000   0.0000   0.0000   0.0000   0.0000   0.0000   0.0000
     0.0000   0.0000   0.0000   0.0000   0.0000   0.0000   0.0000   0.0000
     0.0000   0.0000   0.0000   0.0000   0.0000   0.0000   0.0000   0.0000
     0.0000   0.0000   0.0000   0.0000   0.0000   0.0000   0.0000   0.0000
     0.0000   0.0000   0.0000   0.0000   0.0000   0.0000   0.0000   0.0000
     0.0000   0.0000   0.0000   0.0000   0.0000   0.0000   0.0000   0.0000
     0.0000   0.0000   0.0000   0.0000   0.0000   0.0000   0.0000   0.0000
     0.0000   0.0000   0.0000   0.0000   0.0000   0.0000   0.0000   0.0000
     0.0000   0.0000   0.0000   0.0000   0.0000   0.0000   0.0000   0.0000
     0.0000   0.0000   0.0000   0.0000   0.0000   0.0000   0.0000   0.0000
     0.0000   0.0000   0.0000   0.0000   0.0000   0.0000   0.0000   0.0000
     0.0000   0.0000   0.0000   0.0000   0.0000   0.0000   0.0000   0.0000
     0.0000   0.0000   0.0000   0.0000   0.0000   0.0000   0.0000   0.0000
     0.0000   0.0000   0.0000   0.0000   0.0000   0.0000   0.0000   0.0000
     0.0000   0.0000   0.0000   0.0000   0.0000   0.0000   0.0000   0.0000
     0.0000   0.0000   0.0000   0.0000   0.0000   0.0000   0.0000   0.0000
     0.0000   0.0000   0.0000   0.0000   0.0000   0.0000   0.0000   0.0000
     0.0000   0.0000   0.0000   0.0000   0.0000   0.0000   0.0000   0.0000
     0.0000   0.0000   0.0000   0.0000   0.0000   0.0000   0.0000   0.0000
     0.0000   0.0000   0.0000   0.0000   0.0000   0.0000   0.0000   0.0000
     0.0000   0.0000   0.0000   0.0000   0.0000   0.0000   0.0000   0.0000
     0.0000   0.0000   0.0000   0.0000   0.0000   0.0000   0.0000   0.0000
     0.0000   0.0000   0.0000   0.0000   0.0000   0.0000   0.0000   0.0000
     0.0000   0.0000   0.0000   0.0000   0.0000   0.0000   0.0000   0.0000
     0.0000   0.0000   0.0000   0.0000   0.0000   0.0000   0.0000   0.0000
     0.0000   0.0000   0.0000   0.0000   0.0000   0.0000   0.0000   0.0000
     0.0000   0.0000   0.0000   0.0000   0.0000   0.0000   0.0000   0.0000
     0.0000   0.0000   0.0000   0.0000   0.0000   0.0000   0.0000   0.0000
     0.0000   0.0000   0.0000   0.0000   0.0000   0.0000   0.0000   0.0000
     0.0000   0.0000   0.0000   0.0000   0.0000   0.0000   0.0000   0.0000
     0.0000   0.0000   0.0000   0.0000   0.0000   0.0000   0.0000   0.0000
     0.0000   0.0000   0.0000   0.0000   0.0000   0.0000   0.0000   0.0000
     0.0000   0.0000   0.0000   0.0000   0.0000   0.0000   0.0000   0.0000
     0.0000   0.0000   0.0000   0.0000   0.0000   0.0000   0.0000   0.0000
     0.0000   0.0000   0.0000   0.0000

          k = 0.0000 0.0000 0.1923 ( 59574 PWs)   bands (ev):

   -85.5904 -85.5902 -85.2938 -85.2936 -85.2936 -85.2935 -49.1081 -49.1079
   -48.9989 -48.9987 -48.9258 -48.9257 -48.9101 -48.9100 -48.9100 -48.9099
   -48.6982 -48.6980 -48.6970 -48.6969 -48.5591 -48.5590 -48.5570 -48.5569
   -42.0895 -42.0895 -42.0895 -42.0895 -42.0803 -42.0803 -42.0803 -42.0803
   -42.0351 -42.0351 -42.0351 -42.0351 -42.0311 -42.0311 -42.0310 -42.0310
   -41.9476 -41.9476 -41.9476 -41.9476 -41.9318 -41.9318 -41.9318 -41.9318
   -41.9003 -41.9003 -41.9002 -41.9002 -41.8853 -41.8853 -41.8853 -41.8853
   -41.8778 -41.8778 -41.8778 -41.8778 -41.8350 -41.8350 -41.8350 -41.8350
   -40.8816 -40.8815 -40.8807 -40.8806 -13.8245 -13.7552 -13.7452 -13.7256
   -13.7196 -13.6441 -13.6139 -13.4863 -13.2695 -13.2283 -13.2257 -13.1959
   -13.1783 -13.0328 -13.0098 -12.9369 -12.8391 -12.8271 -12.7697 -12.7591
   -11.0986 -10.8897 -10.8774 -10.8548 -10.8356 -10.7335 -10.7203 -10.7028
   -10.6677 -10.5788 -10.5525 -10.5233 -10.5211 -10.5037 -10.4632 -10.4295
    -3.8693  -3.6953  -3.6283  -3.5064  -3.4533  -3.3176  -3.2155  -3.1038
     0.4406   0.5819   0.7278   0.8775   0.8793   0.9179   0.9855   1.0819
     1.1725   1.2836   1.3764   1.4326   1.4432   1.4755   1.5487   1.6299
     1.6993   1.7239   1.9107   1.9569   2.0443   2.1673   2.2405   2.4402
     3.4447   3.5114   3.6538   3.6978   3.7308   3.7524   3.8264   3.8428
     3.8769   3.9885   4.0090   4.0947   4.2297   4.2383   4.3196   4.3887
     4.3991   4.4225   4.5600   4.6054   4.6748   4.7142   4.7884   4.8902
     4.9479   4.9654   5.0767   5.1314   5.1978   5.2673   5.3229   5.3681
     5.4907   5.5365   5.5846   5.7227   5.7257   5.7855   5.8417   5.8450
     5.9115   5.9272   6.0015   6.0292   6.0401   6.1446   6.2359   6.6111
     8.0214   8.1176   8.2419   8.2714   8.2969   8.3107   8.3799   8.3940
     8.4433   8.4726   8.4754   8.4890   8.5342   8.5739   8.6095   8.6358
     8.6791   8.7631   8.8430   8.9453   8.9742   9.0606   9.1455   9.2337
     9.2364   9.3536   9.3573   9.4299   9.4330   9.5510  11.5568  11.7555
    11.8288  11.9284  11.9596  12.0683  12.2150  12.3415  12.4220  12.4801
    12.5494  12.6355  12.6650  12.8717  12.9733  13.0212  13.1502  13.4320
    13.5728  13.6448  14.0876  14.2474  14.3775  14.4308  14.7337  15.7914
    16.0566  16.2661  16.3776  16.7276  16.7636  17.0526  17.2177  17.2245
    17.2905  17.3342  17.4603  17.6587  17.7267  18.0490  18.0922  18.1975
    18.4159  18.4504  18.4583  18.8861  18.9215  18.9738  19.0725  19.0978
    19.1436  19.1520  19.4075  19.4972  19.6300  19.8821  19.8913  19.9226
    20.1157  20.3398  20.4443  20.5705  20.6207  20.6927  20.8266  21.0444
    21.0659  21.1943  21.2388  21.3263  21.4456  21.5515  21.7398  21.7442
    21.9112  22.0094  22.0799  22.1710  22.2148  22.2805  22.3398  22.5274
    22.6242  22.7857  22.9417  23.1973  23.2077  23.3454  23.3621  23.4467
    23.6006  23.8672  24.0438  24.0667  24.2219  24.3065  24.4775  24.5102
    24.6445  24.7173  24.8052  24.8937  24.9402  25.3656  25.5032  25.6463
    25.8110  25.8366  26.0121  26.1494  26.3227  26.3414  26.4436  26.4659
    26.5873  26.5907  26.8373  26.9142  27.1514  27.1698  27.4390  27.5014
    27.6460  27.7201  27.7459  27.8796  28.2168  28.2856  28.3266  28.4398
    28.5835  28.8347  28.8552  28.9879  29.1707  29.1823  29.2679  29.3798
    29.5288  29.6149  29.7106  29.7473  29.9981  30.1026  30.2007  30.2896
    30.4035  30.4762  30.6652  30.6850  30.7815  30.9321  30.9481  31.0612
    31.2685  31.4592  31.5251  31.5848  31.6714  31.7071  31.9666  32.0724
    32.1613  32.2922  32.3218  32.3849  32.3858  32.6854  32.7118  32.9071
    32.9920  33.1681  33.2073  33.2233  33.2731  33.4068  33.4993  33.5055
    33.5726  33.7457  33.8588  33.9598  34.0917  34.2207  34.2390  34.2662
    34.4612  34.5038  34.5341  34.6410  34.8218  34.8546  35.0275  35.1390
    35.2051  35.2268  35.2411  35.3423  35.4337  35.4871  35.5520  35.6846
    35.8009  35.9255  36.0320  36.0361  36.1483  36.1641  36.3138  36.4315
    36.5296  36.5911  36.7784  36.8608  36.8709  37.0470  37.0733  37.0778
    37.2562  37.4054  37.4694  37.5752  37.6321  37.7056  37.7349  37.8684
    38.0252  38.0538  38.1132  38.1931  38.3147  38.3925  38.5196  38.5672
    38.6773  38.7067  38.8047  38.8830  38.9202  38.9929  39.0125  39.1237
    39.1547  39.3795  39.4321  39.5107  39.5964  39.6007  39.7142  39.8030
    39.9628  40.0847  40.1361  40.2197  40.2722  40.4371  40.4430  40.5629
    40.7015  40.7788  40.7842  40.8947  40.9107  40.9255  41.0617  41.0742
    41.1693  41.2628  41.3588  41.4793  41.4821  41.5718  41.6928  41.7480
    41.8581  41.8657  42.0873  42.1702  42.1710  42.3164  42.5613  42.5635
    42.5985  42.6509  42.7385  42.8586

     occupation numbers 
     1.0000   1.0000   1.0000   1.0000   1.0000   1.0000   1.0000   1.0000
     1.0000   1.0000   1.0000   1.0000   1.0000   1.0000   1.0000   1.0000
     1.0000   1.0000   1.0000   1.0000   1.0000   1.0000   1.0000   1.0000
     1.0000   1.0000   1.0000   1.0000   1.0000   1.0000   1.0000   1.0000
     1.0000   1.0000   1.0000   1.0000   1.0000   1.0000   1.0000   1.0000
     1.0000   1.0000   1.0000   1.0000   1.0000   1.0000   1.0000   1.0000
     1.0000   1.0000   1.0000   1.0000   1.0000   1.0000   1.0000   1.0000
     1.0000   1.0000   1.0000   1.0000   1.0000   1.0000   1.0000   1.0000
     1.0000   1.0000   1.0000   1.0000   1.0000   1.0000   1.0000   1.0000
     1.0000   1.0000   1.0000   1.0000   1.0000   1.0000   1.0000   1.0000
     1.0000   1.0000   1.0000   1.0000   1.0000   1.0000   1.0000   1.0000
     1.0000   1.0000   1.0000   1.0000   1.0000   1.0000   1.0000   1.0000
     1.0000   1.0000   1.0000   1.0000   1.0000   1.0000   1.0000   1.0000
     1.0000   1.0000   1.0000   1.0000   1.0000   1.0000   1.0000   1.0000
     1.0000   1.0000   1.0000   1.0000   1.0000   1.0000   1.0000   1.0000
     1.0000   1.0000   1.0000   1.0000   1.0000   1.0000   1.0000   1.0000
     1.0000   1.0000   1.0000   1.0000   1.0000   1.0000   1.0000   1.0000
     1.0000   1.0000   1.0000   1.0000   1.0000   1.0000   1.0000   1.0000
     1.0000   1.0000   1.0000   1.0000   1.0000   1.0000   1.0000   1.0000
     1.0000   1.0000   1.0000   1.0000   1.0000   1.0000   1.0000   1.0000
     1.0000   1.0000   1.0000   1.0000   1.0000   1.0000   1.0000   1.0000
     1.0000   1.0000   1.0000   1.0000   1.0000   1.0000   1.0000   1.0000
     1.0000   1.0000   1.0000   1.0000   1.0000   1.0000   1.0000   1.0000
     1.0000   1.0000   1.0000   1.0000   1.0000   1.0000   1.0000   1.0000
     1.0000   1.0000   1.0000   1.0000   1.0000   1.0000   1.0000   1.0000
     1.0000   1.0000   1.0000   1.0000   1.0000   0.0001   0.0000   0.0000
     0.0000   0.0000   0.0000   0.0000   0.0000   0.0000   0.0000   0.0000
     0.0000   0.0000   0.0000   0.0000   0.0000   0.0000   0.0000   0.0000
     0.0000   0.0000   0.0000   0.0000   0.0000   0.0000   0.0000   0.0000
     0.0000   0.0000   0.0000   0.0000   0.0000   0.0000   0.0000   0.0000
     0.0000   0.0000   0.0000   0.0000   0.0000   0.0000   0.0000   0.0000
     0.0000   0.0000   0.0000   0.0000   0.0000   0.0000   0.0000   0.0000
     0.0000   0.0000   0.0000   0.0000   0.0000   0.0000   0.0000   0.0000
     0.0000   0.0000   0.0000   0.0000   0.0000   0.0000   0.0000   0.0000
     0.0000   0.0000   0.0000   0.0000   0.0000   0.0000   0.0000   0.0000
     0.0000   0.0000   0.0000   0.0000   0.0000   0.0000   0.0000   0.0000
     0.0000   0.0000   0.0000   0.0000   0.0000   0.0000   0.0000   0.0000
     0.0000   0.0000   0.0000   0.0000   0.0000   0.0000   0.0000   0.0000
     0.0000   0.0000   0.0000   0.0000   0.0000   0.0000   0.0000   0.0000
     0.0000   0.0000   0.0000   0.0000   0.0000   0.0000   0.0000   0.0000
     0.0000   0.0000   0.0000   0.0000   0.0000   0.0000   0.0000   0.0000
     0.0000   0.0000   0.0000   0.0000   0.0000   0.0000   0.0000   0.0000
     0.0000   0.0000   0.0000   0.0000   0.0000   0.0000   0.0000   0.0000
     0.0000   0.0000   0.0000   0.0000   0.0000   0.0000   0.0000   0.0000
     0.0000   0.0000   0.0000   0.0000   0.0000   0.0000   0.0000   0.0000
     0.0000   0.0000   0.0000   0.0000   0.0000   0.0000   0.0000   0.0000
     0.0000   0.0000   0.0000   0.0000   0.0000   0.0000   0.0000   0.0000
     0.0000   0.0000   0.0000   0.0000   0.0000   0.0000   0.0000   0.0000
     0.0000   0.0000   0.0000   0.0000   0.0000   0.0000   0.0000   0.0000
     0.0000   0.0000   0.0000   0.0000   0.0000   0.0000   0.0000   0.0000
     0.0000   0.0000   0.0000   0.0000   0.0000   0.0000   0.0000   0.0000
     0.0000   0.0000   0.0000   0.0000   0.0000   0.0000   0.0000   0.0000
     0.0000   0.0000   0.0000   0.0000   0.0000   0.0000   0.0000   0.0000
     0.0000   0.0000   0.0000   0.0000   0.0000   0.0000   0.0000   0.0000
     0.0000   0.0000   0.0000   0.0000   0.0000   0.0000   0.0000   0.0000
     0.0000   0.0000   0.0000   0.0000   0.0000   0.0000   0.0000   0.0000
     0.0000   0.0000   0.0000   0.0000   0.0000   0.0000   0.0000   0.0000
     0.0000   0.0000   0.0000   0.0000   0.0000   0.0000   0.0000   0.0000
     0.0000   0.0000   0.0000   0.0000   0.0000   0.0000   0.0000   0.0000
     0.0000   0.0000   0.0000   0.0000   0.0000   0.0000   0.0000   0.0000
     0.0000   0.0000   0.0000   0.0000   0.0000   0.0000   0.0000   0.0000
     0.0000   0.0000   0.0000   0.0000   0.0000   0.0000   0.0000   0.0000
     0.0000   0.0000   0.0000   0.0000

          k = 0.0000 0.0000 0.3845 ( 59517 PWs)   bands (ev):

   -85.5904 -85.5902 -85.2938 -85.2936 -85.2936 -85.2935 -49.1081 -49.1079
   -48.9989 -48.9987 -48.9258 -48.9257 -48.9101 -48.9100 -48.9100 -48.9099
   -48.6982 -48.6980 -48.6970 -48.6969 -48.5591 -48.5590 -48.5570 -48.5569
   -42.0895 -42.0895 -42.0895 -42.0895 -42.0803 -42.0803 -42.0803 -42.0803
   -42.0351 -42.0351 -42.0351 -42.0351 -42.0311 -42.0310 -42.0310 -42.0310
   -41.9476 -41.9476 -41.9476 -41.9476 -41.9318 -41.9318 -41.9318 -41.9318
   -41.9003 -41.9003 -41.9002 -41.9002 -41.8853 -41.8853 -41.8853 -41.8853
   -41.8778 -41.8778 -41.8778 -41.8778 -41.8350 -41.8350 -41.8350 -41.8350
   -40.8816 -40.8815 -40.8807 -40.8806 -13.7990 -13.7551 -13.7471 -13.7075
   -13.6932 -13.6778 -13.6418 -13.5617 -13.2426 -13.2011 -13.1930 -13.1913
   -13.1194 -13.0099 -12.9866 -12.9328 -12.9111 -12.8608 -12.7895 -12.7877
   -11.0564 -10.9280 -10.8936 -10.8763 -10.8119 -10.7538 -10.6966 -10.6658
   -10.6560 -10.5542 -10.5515 -10.5423 -10.5209 -10.4897 -10.4776 -10.4502
    -3.8099  -3.6853  -3.6601  -3.5803  -3.3728  -3.2845  -3.2360  -3.1646
     0.4776   0.5334   0.7028   0.7634   0.8575   0.8649   1.0306   1.1272
     1.2161   1.2300   1.2835   1.3332   1.4160   1.4465   1.4841   1.6341
     1.7378   1.7781   1.8748   1.9617   2.1611   2.2137   2.4165   2.5125
     3.5649   3.5699   3.6935   3.7282   3.7669   3.7982   3.8148   3.8336
     3.8644   3.9823   3.9906   4.0600   4.0761   4.1367   4.3184   4.4107
     4.4244   4.5732   4.6069   4.6075   4.7157   4.7635   4.7841   4.8761
     4.9092   4.9495   5.0803   5.1284   5.1535   5.2401   5.2550   5.4167
     5.4209   5.5732   5.6171   5.6907   5.7344   5.7659   5.8582   5.8585
     5.9278   5.9478   6.0031   6.0391   6.0464   6.1187   6.1880   6.4620
     8.0425   8.0894   8.2379   8.2842   8.3014   8.3221   8.3715   8.3878
     8.4689   8.4692   8.4778   8.4855   8.5496   8.5587   8.6157   8.6342
     8.6966   8.7498   8.9342   8.9417   8.9976   9.1067   9.1683   9.2054
     9.2496   9.2873   9.2957   9.3662   9.4414   9.5290  11.6174  11.7148
    11.7784  11.8512  12.0359  12.1916  12.2248  12.2876  12.4475  12.4833
    12.4957  12.6469  12.7620  12.7979  12.9520  13.0376  13.2031  13.3202
    13.3577  13.4661  14.0689  14.2537  14.3177  14.3368  15.1008  15.9209
    16.0788  16.1835  16.4342  16.7757  16.8759  16.9010  17.0142  17.2179
    17.3023  17.3305  17.5520  17.8250  17.8788  18.0538  18.1685  18.1745
    18.3782  18.3888  18.5880  18.8669  18.8905  18.9057  19.0385  19.1843
    19.2242  19.3330  19.3963  19.4846  19.6217  19.6618  19.8312  20.0324
    20.1199  20.3783  20.3825  20.5600  20.6398  20.8765  20.9639  21.0216
    21.0277  21.0841  21.2365  21.2781  21.4475  21.5402  21.6168  21.6675
    21.7471  22.0250  22.0718  22.1450  22.2273  22.2291  22.4426  22.5348
    22.7359  22.7988  22.8992  23.1083  23.2105  23.2768  23.3203  23.5917
    23.6681  23.7469  24.0639  24.1471  24.1818  24.2986  24.3097  24.4562
    24.6020  24.8346  24.9179  25.0317  25.2976  25.3358  25.4857  25.6123
    25.8112  25.8539  25.8694  25.9440  26.3692  26.3825  26.4349  26.4502
    26.6359  26.6558  26.8487  26.9421  26.9743  27.0955  27.3259  27.5219
    27.6226  27.6545  27.7928  27.8945  27.9693  28.0193  28.4010  28.6133
    28.7040  28.7311  28.8472  28.9949  29.1546  29.1717  29.3540  29.5465
    29.5640  29.6229  29.6338  29.8792  29.9387  30.1406  30.1563  30.2693
    30.5333  30.5450  30.6578  30.7972  30.8842  30.9988  31.0338  31.1007
    31.2616  31.3758  31.4513  31.6115  31.6545  31.6691  31.7998  31.8682
    32.0546  32.3112  32.4747  32.4802  32.5802  32.6004  32.7868  32.8443
    32.8930  32.9821  33.0571  33.1545  33.2906  33.3125  33.4016  33.5870
    33.6985  33.8135  33.9138  33.9245  34.0249  34.1268  34.1494  34.3560
    34.3648  34.6240  34.6411  34.7724  34.8313  35.0636  35.0974  35.1219
    35.1485  35.2232  35.2277  35.2618  35.4148  35.4564  35.5972  35.6557
    35.7631  35.8715  35.9316  36.0592  36.1282  36.4352  36.4664  36.5670
    36.5870  36.6353  36.6582  36.9508  37.0194  37.0726  37.0766  37.1559
    37.3335  37.4547  37.4565  37.5445  37.5567  37.6204  37.6263  37.7779
    37.8664  37.9438  38.1300  38.1537  38.1849  38.3377  38.4036  38.4587
    38.6225  38.6809  38.8305  38.8786  38.9532  39.0464  39.1084  39.1669
    39.1672  39.2632  39.3547  39.4302  39.5311  39.5813  39.6559  39.7467
    39.8945  39.9033  40.0457  40.0814  40.2893  40.3808  40.4066  40.5015
    40.5991  40.6169  40.6894  40.8458  40.9927  41.0357  41.0909  41.1455
    41.1880  41.2588  41.4031  41.5277  41.5526  41.6184  41.7710  41.8163
    42.0110  42.1108  42.1558  42.1694  42.2594  42.3666  42.4235  42.4457
    42.5887  42.6349  42.7001  42.7349

     occupation numbers 
     1.0000   1.0000   1.0000   1.0000   1.0000   1.0000   1.0000   1.0000
     1.0000   1.0000   1.0000   1.0000   1.0000   1.0000   1.0000   1.0000
     1.0000   1.0000   1.0000   1.0000   1.0000   1.0000   1.0000   1.0000
     1.0000   1.0000   1.0000   1.0000   1.0000   1.0000   1.0000   1.0000
     1.0000   1.0000   1.0000   1.0000   1.0000   1.0000   1.0000   1.0000
     1.0000   1.0000   1.0000   1.0000   1.0000   1.0000   1.0000   1.0000
     1.0000   1.0000   1.0000   1.0000   1.0000   1.0000   1.0000   1.0000
     1.0000   1.0000   1.0000   1.0000   1.0000   1.0000   1.0000   1.0000
     1.0000   1.0000   1.0000   1.0000   1.0000   1.0000   1.0000   1.0000
     1.0000   1.0000   1.0000   1.0000   1.0000   1.0000   1.0000   1.0000
     1.0000   1.0000   1.0000   1.0000   1.0000   1.0000   1.0000   1.0000
     1.0000   1.0000   1.0000   1.0000   1.0000   1.0000   1.0000   1.0000
     1.0000   1.0000   1.0000   1.0000   1.0000   1.0000   1.0000   1.0000
     1.0000   1.0000   1.0000   1.0000   1.0000   1.0000   1.0000   1.0000
     1.0000   1.0000   1.0000   1.0000   1.0000   1.0000   1.0000   1.0000
     1.0000   1.0000   1.0000   1.0000   1.0000   1.0000   1.0000   1.0000
     1.0000   1.0000   1.0000   1.0000   1.0000   1.0000   1.0000   1.0000
     1.0000   1.0000   1.0000   1.0000   1.0000   1.0000   1.0000   1.0000
     1.0000   1.0000   1.0000   1.0000   1.0000   1.0000   1.0000   1.0000
     1.0000   1.0000   1.0000   1.0000   1.0000   1.0000   1.0000   1.0000
     1.0000   1.0000   1.0000   1.0000   1.0000   1.0000   1.0000   1.0000
     1.0000   1.0000   1.0000   1.0000   1.0000   1.0000   1.0000   1.0000
     1.0000   1.0000   1.0000   1.0000   1.0000   1.0000   1.0000   1.0000
     1.0000   1.0000   1.0000   1.0000   1.0000   1.0000   1.0000   1.0000
     1.0000   1.0000   1.0000   1.0000   1.0000   1.0000   1.0000   1.0000
     1.0000   1.0000   1.0000   1.0000   1.0133   0.0000   0.0000   0.0000
     0.0000   0.0000   0.0000   0.0000   0.0000   0.0000   0.0000   0.0000
     0.0000   0.0000   0.0000   0.0000   0.0000   0.0000   0.0000   0.0000
     0.0000   0.0000   0.0000   0.0000   0.0000   0.0000   0.0000   0.0000
     0.0000   0.0000   0.0000   0.0000   0.0000   0.0000   0.0000   0.0000
     0.0000   0.0000   0.0000   0.0000   0.0000   0.0000   0.0000   0.0000
     0.0000   0.0000   0.0000   0.0000   0.0000   0.0000   0.0000   0.0000
     0.0000   0.0000   0.0000   0.0000   0.0000   0.0000   0.0000   0.0000
     0.0000   0.0000   0.0000   0.0000   0.0000   0.0000   0.0000   0.0000
     0.0000   0.0000   0.0000   0.0000   0.0000   0.0000   0.0000   0.0000
     0.0000   0.0000   0.0000   0.0000   0.0000   0.0000   0.0000   0.0000
     0.0000   0.0000   0.0000   0.0000   0.0000   0.0000   0.0000   0.0000
     0.0000   0.0000   0.0000   0.0000   0.0000   0.0000   0.0000   0.0000
     0.0000   0.0000   0.0000   0.0000   0.0000   0.0000   0.0000   0.0000
     0.0000   0.0000   0.0000   0.0000   0.0000   0.0000   0.0000   0.0000
     0.0000   0.0000   0.0000   0.0000   0.0000   0.0000   0.0000   0.0000
     0.0000   0.0000   0.0000   0.0000   0.0000   0.0000   0.0000   0.0000
     0.0000   0.0000   0.0000   0.0000   0.0000   0.0000   0.0000   0.0000
     0.0000   0.0000   0.0000   0.0000   0.0000   0.0000   0.0000   0.0000
     0.0000   0.0000   0.0000   0.0000   0.0000   0.0000   0.0000   0.0000
     0.0000   0.0000   0.0000   0.0000   0.0000   0.0000   0.0000   0.0000
     0.0000   0.0000   0.0000   0.0000   0.0000   0.0000   0.0000   0.0000
     0.0000   0.0000   0.0000   0.0000   0.0000   0.0000   0.0000   0.0000
     0.0000   0.0000   0.0000   0.0000   0.0000   0.0000   0.0000   0.0000
     0.0000   0.0000   0.0000   0.0000   0.0000   0.0000   0.0000   0.0000
     0.0000   0.0000   0.0000   0.0000   0.0000   0.0000   0.0000   0.0000
     0.0000   0.0000   0.0000   0.0000   0.0000   0.0000   0.0000   0.0000
     0.0000   0.0000   0.0000   0.0000   0.0000   0.0000   0.0000   0.0000
     0.0000   0.0000   0.0000   0.0000   0.0000   0.0000   0.0000   0.0000
     0.0000   0.0000   0.0000   0.0000   0.0000   0.0000   0.0000   0.0000
     0.0000   0.0000   0.0000   0.0000   0.0000   0.0000   0.0000   0.0000
     0.0000   0.0000   0.0000   0.0000   0.0000   0.0000   0.0000   0.0000
     0.0000   0.0000   0.0000   0.0000   0.0000   0.0000   0.0000   0.0000
     0.0000   0.0000   0.0000   0.0000   0.0000   0.0000   0.0000   0.0000
     0.0000   0.0000   0.0000   0.0000   0.0000   0.0000   0.0000   0.0000
     0.0000   0.0000   0.0000   0.0000   0.0000   0.0000   0.0000   0.0000
     0.0000   0.0000   0.0000   0.0000   0.0000   0.0000   0.0000   0.0000
     0.0000   0.0000   0.0000   0.0000

          k = 0.0000 0.0000-0.5768 ( 59496 PWs)   bands (ev):

   -85.5904 -85.5902 -85.2938 -85.2936 -85.2936 -85.2935 -49.1081 -49.1079
   -48.9989 -48.9987 -48.9258 -48.9257 -48.9101 -48.9100 -48.9100 -48.9099
   -48.6982 -48.6980 -48.6970 -48.6969 -48.5591 -48.5590 -48.5570 -48.5569
   -42.0895 -42.0895 -42.0895 -42.0895 -42.0803 -42.0803 -42.0803 -42.0803
   -42.0351 -42.0351 -42.0351 -42.0351 -42.0310 -42.0310 -42.0310 -42.0310
   -41.9476 -41.9476 -41.9476 -41.9476 -41.9318 -41.9318 -41.9318 -41.9318
   -41.9003 -41.9003 -41.9002 -41.9002 -41.8853 -41.8853 -41.8853 -41.8853
   -41.8778 -41.8778 -41.8778 -41.8778 -41.8350 -41.8350 -41.8350 -41.8350
   -40.8816 -40.8816 -40.8807 -40.8806 -13.7701 -13.7701 -13.7298 -13.7298
   -13.6719 -13.6719 -13.6344 -13.6344 -13.2146 -13.2146 -13.1827 -13.1827
   -13.0253 -13.0253 -12.9766 -12.9766 -12.9024 -12.9023 -12.8023 -12.8023
   -10.9953 -10.9953 -10.8894 -10.8894 -10.7816 -10.7816 -10.6756 -10.6756
   -10.6004 -10.6004 -10.5364 -10.5364 -10.5054 -10.5054 -10.4713 -10.4713
    -3.7335  -3.7335  -3.6414  -3.6414  -3.2799  -3.2799  -3.2428  -3.2428
     0.5035   0.5035   0.7043   0.7043   0.8472   0.8472   1.1218   1.1218
     1.1929   1.1929   1.2706   1.2706   1.3909   1.3909   1.5472   1.5472
     1.7973   1.7973   1.8935   1.8935   2.2457   2.2457   2.5301   2.5301
     3.6390   3.6390   3.6999   3.6999   3.7747   3.7747   3.8223   3.8223
     3.9373   3.9373   4.0133   4.0133   4.0443   4.0443   4.3746   4.3746
     4.4960   4.4960   4.6275   4.6275   4.7327   4.7327   4.8429   4.8429
     4.9753   4.9753   5.1176   5.1176   5.1727   5.1727   5.2654   5.2654
     5.5063   5.5063   5.7039   5.7039   5.7417   5.7417   5.8405   5.8405
     5.9688   5.9688   5.9849   5.9849   6.0755   6.0755   6.2993   6.2993
     8.0621   8.0622   8.2509   8.2510   8.3304   8.3305   8.3729   8.3730
     8.4760   8.4761   8.4805   8.4805   8.5539   8.5539   8.6242   8.6242
     8.7229   8.7230   8.9724   8.9724   9.0502   9.0502   9.1721   9.1722
     9.2814   9.2814   9.3037   9.3037   9.4781   9.4781  11.6970  11.6970
    11.7377  11.7377  12.1845  12.1845  12.2774  12.2774  12.3871  12.3871
    12.5978  12.5978  12.8655  12.8655  12.9688  12.9688  13.1735  13.1735
    13.3472  13.3472  14.1616  14.1616  14.2879  14.2879  15.5282  15.5282
[...]
     atom   29 type  3   force =     2.41577867   -1.27127728    6.47710996
     atom   30 type  3   force =    -2.41577867   -1.27127728   -6.47710996
     atom   31 type  3   force =     6.20941852    1.75008802    4.44115330
     atom   32 type  3   force =    -6.20941852    1.75008802   -4.44115330
     atom   33 type  3   force =    -6.20941852   -1.75008802   -4.44115330
     atom   34 type  3   force =     6.20941852   -1.75008802    4.44115330
     atom   35 type  3   force =     0.67112302   -2.33174923   -5.66364659
     atom   36 type  3   force =    -0.67112302   -2.33174923    5.66364659
     atom   37 type  3   force =    -0.67112302    2.33174923    5.66364659
     atom   38 type  3   force =     0.67112302    2.33174923   -5.66364659
     atom   39 type  2   force =    -3.93235122   -1.21935889   -2.68665094
     atom   40 type  2   force =     3.93235122   -1.21935889    2.68665094
     atom   41 type  2   force =     3.93235122    1.21935889    2.68665094
     atom   42 type  2   force =    -3.93235122    1.21935889   -2.68665094
     The local contribution  to forces
     atom    1 type  4   force =    12.27232281   -2.24651779   22.22934747
     atom    2 type  4   force =   -12.27283787   -2.24686467  -22.22922216
     atom    3 type  4   force =   -12.27232281    2.24651779  -22.22934747
     atom    4 type  4   force =    12.27283787    2.24686467   22.22922216
     atom    5 type  4   force =    26.70027317    5.41679372    5.47717792
     atom    6 type  4   force =   -26.69995549    5.41682613   -5.47769390
     atom    7 type  4   force =   -26.70027317   -5.41679372   -5.47717792
     atom    8 type  4   force =    26.69995549   -5.41682613    5.47769390
     atom    9 type  1   force =     0.00000000   -0.00000000    0.00000000
     atom   10 type  1   force =     0.00000000    0.00000000    0.00000000
     atom   11 type  1   force =     9.20152953    0.41316245   -0.81909394
     atom   12 type  1   force =    -9.20106729    0.41316697    0.81904799
     atom   13 type  1   force =    -9.20152953   -0.41316245    0.81909394
     atom   14 type  1   force =     9.20106729   -0.41316697   -0.81904799
     atom   15 type  3   force =    -0.07132904   -4.75842523    6.43310579
     atom   16 type  3   force =     0.07113540   -4.75834327   -6.43345565
     atom   17 type  3   force =     0.07132904    4.75842523   -6.43310579
     atom   18 type  3   force =    -0.07113540    4.75834327    6.43345565
     atom   19 type  3   force =     7.85248267    5.73692480   -4.97280585
     atom   20 type  3   force =    -7.85265592    5.73669538    4.97300502
     atom   21 type  3   force =    -7.85248267   -5.73692480    4.97280585
     atom   22 type  3   force =     7.85265592   -5.73669538   -4.97300502
     atom   23 type  3   force =     3.90551298    1.92680504   -1.40349776
     atom   24 type  3   force =    -3.90580302    1.92649970    1.40366933
     atom   25 type  3   force =    -3.90551298   -1.92680504    1.40349776
     atom   26 type  3   force =     3.90580302   -1.92649970   -1.40366933
     atom   27 type  3   force =     2.53152513   -0.43680158    6.14616445
     atom   28 type  3   force =    -2.53093092   -0.43685113   -6.14644063
     atom   29 type  3   force =    -2.53152513    0.43680158   -6.14616445
     atom   30 type  3   force =     2.53093092    0.43685113    6.14644063
     atom   31 type  3   force =    -5.38903819   -1.77074449   -3.64971437
     atom   32 type  3   force =     5.38947637   -1.77089356    3.64939420
     atom   33 type  3   force =     5.38903819    1.77074449    3.64971437
     atom   34 type  3   force =    -5.38947637    1.77089356   -3.64939420
     atom   35 type  3   force =     0.11541109    1.87249810    4.84577075
     atom   36 type  3   force =    -0.11540943    1.87259621   -4.84596900
     atom   37 type  3   force =    -0.11541109   -1.87249810   -4.84577075
     atom   38 type  3   force =     0.11540943   -1.87259621    4.84596900
     atom   39 type  2   force =     3.88790170    1.28825840    2.62619745
     atom   40 type  2   force =    -3.88811530    1.28825312   -2.62593169
     atom   41 type  2   force =    -3.88790170   -1.28825840   -2.62619745
     atom   42 type  2   force =     3.88811530   -1.28825312    2.62593169
     The core correction contribution to forces
     atom    1 type  4   force =    -0.00724975   -0.00026045   -0.01513977
     atom    2 type  4   force =     0.00724955   -0.00026051    0.01513978
     atom    3 type  4   force =     0.00724975    0.00026045    0.01513977
     atom    4 type  4   force =    -0.00724955    0.00026051   -0.01513978
     atom    5 type  4   force =    -0.01444204   -0.00134389    0.00533024
     atom    6 type  4   force =     0.01444242   -0.00134387   -0.00533066
     atom    7 type  4   force =     0.01444204    0.00134389   -0.00533024
     atom    8 type  4   force =    -0.01444242    0.00134387    0.00533066
     atom    9 type  1   force =    -0.00000000   -0.00000000    0.00000000
     atom   10 type  1   force =     0.00000000    0.00000000   -0.00000000
     atom   11 type  1   force =     0.00609199   -0.00053434    0.00789530
     atom   12 type  1   force =    -0.00608895   -0.00053541   -0.00789505
     atom   13 type  1   force =    -0.00609199    0.00053434   -0.00789530
     atom   14 type  1   force =     0.00608895    0.00053541    0.00789505
     atom   15 type  3   force =     0.02554397    0.01150276   -0.01196979
     atom   16 type  3   force =    -0.02554422    0.01150299    0.01196798
     atom   17 type  3   force =    -0.02554397   -0.01150276    0.01196979
     atom   18 type  3   force =     0.02554422   -0.01150299   -0.01196798
     atom   19 type  3   force =     0.00058144   -0.02104772    0.02783153
     atom   20 type  3   force =    -0.00058139   -0.02104813   -0.02783091
     atom   21 type  3   force =    -0.00058144    0.02104772   -0.02783153
     atom   22 type  3   force =     0.00058139    0.02104813    0.02783091
     atom   23 type  3   force =    -0.01711718    0.00486384    0.01727256
     atom   24 type  3   force =     0.01711542    0.00486061   -0.01727175
     atom   25 type  3   force =     0.01711718   -0.00486384   -0.01727256
     atom   26 type  3   force =    -0.01711542   -0.00486061    0.01727175
     atom   27 type  3   force =     0.00179765    0.01582485   -0.00795896
     atom   28 type  3   force =    -0.00179520    0.01582378    0.00795721
     atom   29 type  3   force =    -0.00179765   -0.01582485    0.00795896
     atom   30 type  3   force =     0.00179520   -0.01582378   -0.00795721
     atom   31 type  3   force =     0.02078131    0.00658950    0.01881553
     atom   32 type  3   force =    -0.02077861    0.00658826   -0.01881701
     atom   33 type  3   force =    -0.02078131   -0.00658950   -0.01881553
     atom   34 type  3   force =     0.02077861   -0.00658826    0.01881701
     atom   35 type  3   force =     0.02452752   -0.00902387   -0.01638824
     atom   36 type  3   force =    -0.02452799   -0.00902317    0.01638740
     atom   37 type  3   force =    -0.02452752    0.00902387    0.01638824
     atom   38 type  3   force =     0.02452799    0.00902317   -0.01638740
     atom   39 type  2   force =     0.00000000    0.00000000    0.00000000
     atom   40 type  2   force =     0.00000000    0.00000000    0.00000000
     atom   41 type  2   force =     0.00000000    0.00000000    0.00000000
     atom   42 type  2   force =     0.00000000    0.00000000    0.00000000
     The Hubbard contrib.    to forces
     atom    1 type  4   force =     0.00000000    0.00000000    0.00000000
     atom    2 type  4   force =     0.00000000    0.00000000    0.00000000
     atom    3 type  4   force =     0.00000000    0.00000000    0.00000000
     atom    4 type  4   force =     0.00000000    0.00000000    0.00000000
     atom    5 type  4   force =     0.00000000    0.00000000    0.00000000
     atom    6 type  4   force =     0.00000000    0.00000000    0.00000000
     atom    7 type  4   force =     0.00000000    0.00000000    0.00000000
     atom    8 type  4   force =     0.00000000    0.00000000    0.00000000
     atom    9 type  1   force =     0.00000000    0.00000000    0.00000000
     atom   10 type  1   force =     0.00000000    0.00000000    0.00000000
     atom   11 type  1   force =     0.00000000    0.00000000    0.00000000
     atom   12 type  1   force =     0.00000000    0.00000000    0.00000000
     atom   13 type  1   force =     0.00000000    0.00000000    0.00000000
     atom   14 type  1   force =     0.00000000    0.00000000    0.00000000
     atom   15 type  3   force =     0.00000000    0.00000000    0.00000000
     atom   16 type  3   force =     0.00000000    0.00000000    0.00000000
     atom   17 type  3   force =     0.00000000    0.00000000    0.00000000
     atom   18 type  3   force =     0.00000000    0.00000000    0.00000000
     atom   19 type  3   force =     0.00000000    0.00000000    0.00000000
     atom   20 type  3   force =     0.00000000    0.00000000    0.00000000
     atom   21 type  3   force =     0.00000000    0.00000000    0.00000000
     atom   22 type  3   force =     0.00000000    0.00000000    0.00000000
     atom   23 type  3   force =     0.00000000    0.00000000    0.00000000
     atom   24 type  3   force =     0.00000000    0.00000000    0.00000000
     atom   25 type  3   force =     0.00000000    0.00000000    0.00000000
     atom   26 type  3   force =     0.00000000    0.00000000    0.00000000
     atom   27 type  3   force =     0.00000000    0.00000000    0.00000000
     atom   28 type  3   force =     0.00000000    0.00000000    0.00000000
     atom   29 type  3   force =     0.00000000    0.00000000    0.00000000
     atom   30 type  3   force =     0.00000000    0.00000000    0.00000000
     atom   31 type  3   force =     0.00000000    0.00000000    0.00000000
     atom   32 type  3   force =     0.00000000    0.00000000    0.00000000
     atom   33 type  3   force =     0.00000000    0.00000000    0.00000000
     atom   34 type  3   force =     0.00000000    0.00000000    0.00000000
     atom   35 type  3   force =     0.00000000    0.00000000    0.00000000
     atom   36 type  3   force =     0.00000000    0.00000000    0.00000000
     atom   37 type  3   force =     0.00000000    0.00000000    0.00000000
     atom   38 type  3   force =     0.00000000    0.00000000    0.00000000
     atom   39 type  2   force =     0.00000000    0.00000000    0.00000000
     atom   40 type  2   force =     0.00000000    0.00000000    0.00000000
     atom   41 type  2   force =     0.00000000    0.00000000    0.00000000
     atom   42 type  2   force =     0.00000000    0.00000000    0.00000000
     The SCF correction term to forces
     atom    1 type  4   force =     0.00016164   -0.00016076   -0.00024252
     atom    2 type  4   force =     0.00035812    0.00018667    0.00011935
     atom    3 type  4   force =    -0.00016164    0.00016076    0.00024252
     atom    4 type  4   force =    -0.00035812   -0.00018667   -0.00011935
     atom    5 type  4   force =    -0.00031617    0.00008093    0.00023705
     atom    6 type  4   force =    -0.00001475    0.00005186    0.00027758
     atom    7 type  4   force =     0.00031617   -0.00008093   -0.00023705
     atom    8 type  4   force =     0.00001475   -0.00005186   -0.00027758
     atom    9 type  1   force =    -0.00000000   -0.00000000   -0.00000000
     atom   10 type  1   force =    -0.00000000   -0.00000000    0.00000000
     atom   11 type  1   force =    -0.00026144   -0.00006215    0.00005380
     atom   12 type  1   force =    -0.00019146   -0.00006756   -0.00001111
     atom   13 type  1   force =     0.00026144    0.00006215   -0.00005380
     atom   14 type  1   force =     0.00019146    0.00006756    0.00001111
     atom   15 type  3   force =     0.00008648    0.00006273    0.00016581
     atom   16 type  3   force =     0.00010576   -0.00001675    0.00015823
     atom   17 type  3   force =    -0.00008648   -0.00006273   -0.00016581
     atom   18 type  3   force =    -0.00010576    0.00001675   -0.00015823
     atom   19 type  3   force =     0.00006211   -0.00016410   -0.00015360
     atom   20 type  3   force =     0.00011297    0.00006139   -0.00003671
     atom   21 type  3   force =    -0.00006211    0.00016410    0.00015360
     atom   22 type  3   force =    -0.00011297   -0.00006139    0.00003671
     atom   23 type  3   force =     0.00009031   -0.00010894   -0.00008402
     atom   24 type  3   force =     0.00017529    0.00014649   -0.00007530
     atom   25 type  3   force =    -0.00009031    0.00010894    0.00008402
     atom   26 type  3   force =    -0.00017529   -0.00014649    0.00007530
     atom   27 type  3   force =    -0.00030988   -0.00001496    0.00013582
     atom   28 type  3   force =    -0.00024970    0.00002073    0.00011423
     atom   29 type  3   force =     0.00030988    0.00001496   -0.00013582
     atom   30 type  3   force =     0.00024970   -0.00002073   -0.00011423
     atom   31 type  3   force =    -0.00019710   -0.00012761    0.00017600
     atom   32 type  3   force =    -0.00020330    0.00000489    0.00012659
     atom   33 type  3   force =     0.00019710    0.00012761   -0.00017600
     atom   34 type  3   force =     0.00020330   -0.00000489   -0.00012659
     atom   35 type  3   force =    -0.00006857    0.00000215    0.00002147
     atom   36 type  3   force =     0.00005910   -0.00008735    0.00016562
     atom   37 type  3   force =     0.00006857   -0.00000215   -0.00002147
     atom   38 type  3   force =    -0.00005910    0.00008735   -0.00016562
     atom   39 type  2   force =     0.00011072   -0.00006961   -0.00011998
     atom   40 type  2   force =     0.00010117   -0.00006179   -0.00014040
     atom   41 type  2   force =    -0.00011072    0.00006961    0.00011998
     atom   42 type  2   force =    -0.00010117    0.00006179    0.00014040

     Total force =     0.410197     Total SCF correction =     0.001627


     Computing stress (Cartesian axis) and pressure

          total   stress  (Ry/bohr**3)                   (kbar)     P=       26.03
   0.00030241   0.00000005   0.00001991           44.49        0.01        2.93
   0.00000005   0.00008344  -0.00000006            0.01       12.28       -0.01
   0.00001991  -0.00000006   0.00014504            2.93       -0.01       21.34

     kinetic stress (kbar)  78948.59     -0.03    131.81
                               -0.03  78615.93      0.03
                              131.81      0.03  78750.89

     local   stress (kbar)  -7911.59      0.06   5104.27
                                0.06 -20859.24     -0.03
                             5104.27     -0.03 -17130.38

     nonloc. stress (kbar) -39416.15      0.02    -22.81
                                0.02 -39413.17     -0.01
                              -22.81     -0.01 -39362.26

     hartree stress (kbar)  19856.70     -0.03  -2248.29
                               -0.03  25356.12      0.00
                            -2248.29      0.00  23948.21

     exc-cor stress (kbar)   6163.81     -0.00     -0.52
                               -0.00   6164.10      0.00
                               -0.52      0.00   6164.48

     corecor stress (kbar) -16591.06      0.00     -1.69
                                0.00 -16587.50     -0.00
                               -1.69     -0.00 -16588.94

     ewald   stress (kbar) -41005.82      0.00  -2959.85
                                0.00 -33263.97      0.00
                            -2959.85      0.00 -35760.66

     hubbard stress (kbar)      0.00      0.00      0.00
                                0.00      0.00      0.00
                                0.00      0.00      0.00

     DFT-D   stress (kbar)      0.00      0.00      0.00
                                0.00      0.00      0.00
                                0.00      0.00      0.00

     XDM     stress (kbar)      0.00      0.00      0.00
                                0.00      0.00      0.00
                                0.00      0.00      0.00

     dft-nl  stress (kbar)      0.00      0.00      0.00
                                0.00      0.00      0.00
                                0.00      0.00      0.00

     TS-vdW  stress (kbar)      0.00      0.00      0.00
                                0.00      0.00      0.00
                                0.00      0.00      0.00

     MDB     stress (kbar)      0.00      0.00      0.00
                                0.00      0.00      0.00
                                0.00      0.00      0.00

     3D-RISM stress (kbar)      0.00      0.00      0.00
                                0.00      0.00      0.00
                                0.00      0.00      0.00


     Writing all to output data dir ./out/ncso.save/
 
     init_run     :     76.49s CPU     79.13s WALL (       1 calls)
     electrons    :   7385.16s CPU   7531.81s WALL (       1 calls)
     forces       :     39.36s CPU     40.45s WALL (       1 calls)
     stress       :   1400.73s CPU   1406.20s WALL (       1 calls)

     Called by init_run:
     wfcinit      :     74.90s CPU     77.11s WALL (       1 calls)
     wfcinit:atom :      0.30s CPU      0.52s WALL (     112 calls)
     wfcinit:wfcr :     71.96s CPU     73.29s WALL (     112 calls)
     potinit      :      0.35s CPU      0.41s WALL (       1 calls)
     hinit0       :      1.06s CPU      1.34s WALL (       1 calls)

     Called by electrons:
     c_bands      :   7071.28s CPU   7210.52s WALL (      20 calls)
     sum_band     :    313.41s CPU    317.78s WALL (      20 calls)
     v_of_rho     :      0.40s CPU      0.50s WALL (      21 calls)
     v_h          :      0.05s CPU      0.11s WALL (      21 calls)
     v_xc         :      0.38s CPU      0.43s WALL (      23 calls)
     mix_rho      :      0.08s CPU      0.10s WALL (      20 calls)

     Called by c_bands:
     init_us_2    :     23.11s CPU     23.24s WALL (    4816 calls)
     init_us_2:cp :     23.09s CPU     23.23s WALL (    4816 calls)
     cegterg      :   6937.51s CPU   7075.00s WALL (    2240 calls)

     Called by sum_band:
     sum_band:wei :      0.71s CPU      0.72s WALL (      20 calls)
     sum_band:loo :    312.57s CPU    316.92s WALL (      20 calls)
     sum_band:buf :      9.75s CPU     10.55s WALL (    2240 calls)
     sum_band:ini :     10.80s CPU     10.85s WALL (    2240 calls)

     Called by *egterg:
     cdiaghg      :   2769.07s CPU   2788.36s WALL (   15042 calls)
     cegterg:over :    652.79s CPU    666.24s WALL (   12802 calls)
     cegterg:upda :    546.35s CPU    562.43s WALL (   12802 calls)
     cegterg:last :    750.52s CPU    779.65s WALL (    4311 calls)
     cdiaghg:chol :     94.88s CPU     95.21s WALL (   15042 calls)
     cdiaghg:inve :     23.04s CPU     23.13s WALL (   15042 calls)
     cdiaghg:para :    226.24s CPU    238.78s WALL (   30084 calls)
     h_psi        :   2044.76s CPU   2091.51s WALL (   15154 calls)
     g_psi        :     11.33s CPU     11.40s WALL (   12802 calls)

     Called by h_psi:
     h_psi:calbec :    381.23s CPU    392.44s WALL (   15154 calls)
     vloc_psi     :   1292.04s CPU   1308.47s WALL (   15154 calls)
     add_vuspsi   :    351.71s CPU    355.62s WALL (   15154 calls)

     General routines
     calbec       :    466.38s CPU    478.98s WALL (   15714 calls)
     fft          :      0.53s CPU      0.90s WALL (     234 calls)
     ffts         :      0.01s CPU      0.02s WALL (      20 calls)
     fftw         :   1382.71s CPU   1400.07s WALL ( 6472364 calls)
 
     Parallel routines
 
     PWSCF        :      2h28m CPU      2h32m WALL

 
   This run was terminated on:  19:44:11   3May2024            

=------------------------------------------------------------------------------=
   JOB DONE.
=------------------------------------------------------------------------------=
