
     Program PWSCF v.7.2 starts on  3May2024 at 17:11:53 

     This program is part of the open-source Quantum ESPRESSO suite
     for quantum simulation of materials; please cite
         "P. Giannozzi et al., J. Phys.:Condens. Matter 21 395502 (2009);
         "P. Giannozzi et al., J. Phys.:Condens. Matter 29 465901 (2017);
         "P. Giannozzi et al., J. Chem. Phys. 152 154105 (2020);
          URL http://www.quantum-espresso.org", 
     in publications or presentations arising from this work. More details at
     http://www.quantum-espresso.org/quote

     Parallel version (MPI), running on    40 processors

     MPI processes distributed on     1 nodes
     244704 MiB available memory on the printing compute node when the environment starts
 
     Reading input from lcso_scf.in

     Current dimensions of program PWSCF are:
     Max number of different atomic species (ntypx) = 10
     Max number of k-points (npk) =  40000
     Max angular momentum in pseudopotentials (lmaxx) =  4
     Message from routine setup:
     using ibrav=0 with symmetry is DISCOURAGED, use correct ibrav instead
 
     R & G space division:  proc/nbgrp/npool/nimage =      40
     Subspace diagonalization in iterative solution of the eigenvalue problem:
     one sub-group per band group will be used
     custom distributed-memory algorithm (size of sub-group:  6*  6 procs)

 
     Parallelization info
     --------------------
     sticks:   dense  smooth     PW     G-vecs:    dense   smooth      PW
     Min         228     228     60                39946    39946    5370
     Max         229     229     61                39961    39961    5377
     Sum        9151    9151   2407              1598091  1598091  214977
 
     Using Slab Decomposition
 


     bravais-lattice index     =            0
     lattice parameter (alat)  =      18.2315  a.u.
     unit-cell volume          =   11832.6493 (a.u.)^3
     number of atoms/cell      =          138
     number of atomic types    =            4
     number of electrons       =      1026.00
     number of Kohn-Sham states=          616
     kinetic-energy cutoff     =     100.0000  Ry
     charge density cutoff     =     400.0000  Ry
     scf convergence threshold =      3.0E-08
     mixing beta               =       0.2000
     number of iterations used =            8  plain     mixing
     Exchange-correlation= PBESOL
                           (   1   4  10   8   0   0   0)

     celldm(1)=  18.231511  celldm(2)=   0.000000  celldm(3)=   0.000000
     celldm(4)=   0.000000  celldm(5)=   0.000000  celldm(6)=   0.000000

     crystal axes: (cart. coord. in units of alat)
               a(1) = (   1.000000   0.000000   0.000000 )  
               a(2) = (  -0.500000   0.866025   0.000000 )  
               a(3) = (   0.000000   0.000000   2.254672 )  

     reciprocal axes: (cart. coord. in units 2 pi/alat)
               b(1) = (  1.000000  0.577350  0.000000 )  
               b(2) = (  0.000000  1.154701  0.000000 )  
               b(3) = (  0.000000  0.000000  0.443523 )  


     PseudoPot. # 1 for Co read from file:
     /projects/p31387/PP/PBEsol_NC_SR/Co.upf
     MD5 check sum: da2f8eda8ae963674925720b0359a264
     Pseudo is Norm-conserving + core correction, Zval = 17.0
     Generated using ONCVPSP code by D. R. Hamann
     Using radial grid of 1388 points,  6 beta functions with: 
                l(1) =   0
                l(2) =   0
                l(3) =   1
                l(4) =   1
                l(5) =   2
                l(6) =   2

     PseudoPot. # 2 for Li read from file:
     /projects/p31387/PP/PBEsol_NC_SR/Li.upf
     MD5 check sum: dc9f6e608df41cc7e5665a263ba47fe0
     Pseudo is Norm-conserving, Zval =  3.0
     Generated using ONCVPSP code by D. R. Hamann
     Using radial grid of 1944 points,  4 beta functions with: 
                l(1) =   0
                l(2) =   0
                l(3) =   1
                l(4) =   1

     PseudoPot. # 3 for O  read from file:
     /projects/p31387/PP/PBEsol_NC_SR/O.upf
     MD5 check sum: f226cbcd508cec715ff87a8f75a1dfba
     Pseudo is Norm-conserving + core correction, Zval =  6.0
     Generated using ONCVPSP code by D. R. Hamann
     Using radial grid of  936 points,  5 beta functions with: 
                l(1) =   0
                l(2) =   0
                l(3) =   1
                l(4) =   1
                l(5) =   2

     PseudoPot. # 4 for Se read from file:
     /projects/p31387/PP/PBEsol_NC_SR/Se.upf
     MD5 check sum: c42e2feaec75ccac7da27b7ff1240b9c
     Pseudo is Norm-conserving + core correction, Zval = 16.0
     Generated using ONCVPSP code by D. R. Hamann
     Using radial grid of 1198 points,  6 beta functions with: 
                l(1) =   0
                l(2) =   0
                l(3) =   1
                l(4) =   1
                l(5) =   2
                l(6) =   2

     atomic species   valence    mass     pseudopotential
        Co            17.00    58.93319     Co( 1.00)
        Li             3.00     6.94100     Li( 1.00)
        O              6.00    15.99940     O ( 1.00)
        Se            16.00    78.96000     Se( 1.00)

      6 Sym. Ops., with inversion, found


                                    s                        frac. trans.

      isym =  1     identity                                     

 cryst.   s( 1) = (     1          0          0      )
                  (     0          1          0      )
                  (     0          0          1      )

 cart.    s( 1) = (  1.0000000  0.0000000  0.0000000 )
                  (  0.0000000  1.0000000  0.0000000 )
                  (  0.0000000  0.0000000  1.0000000 )


      isym =  2     120 deg rotation - cryst. axis [0,0,1]       

 cryst.   s( 2) = (     0          1          0      )
                  (    -1         -1          0      )
                  (     0          0          1      )

 cart.    s( 2) = ( -0.5000000 -0.8660254  0.0000000 )
                  (  0.8660254 -0.5000000  0.0000000 )
                  (  0.0000000  0.0000000  1.0000000 )


      isym =  3     120 deg rotation - cryst. axis [0,0,-1]      

 cryst.   s( 3) = (    -1         -1          0      )
                  (     1          0          0      )
                  (     0          0          1      )

 cart.    s( 3) = ( -0.5000000  0.8660254  0.0000000 )
                  ( -0.8660254 -0.5000000  0.0000000 )
                  (  0.0000000  0.0000000  1.0000000 )


      isym =  4     inversion                                    

 cryst.   s( 4) = (    -1          0          0      )
                  (     0         -1          0      )
                  (     0          0         -1      )

 cart.    s( 4) = ( -1.0000000  0.0000000  0.0000000 )
                  (  0.0000000 -1.0000000  0.0000000 )
                  (  0.0000000  0.0000000 -1.0000000 )


      isym =  5     inv. 120 deg rotation - cryst. axis [0,0,1]  

 cryst.   s( 5) = (     0         -1          0      )
                  (     1          1          0      )
                  (     0          0         -1      )

 cart.    s( 5) = (  0.5000000  0.8660254  0.0000000 )
                  ( -0.8660254  0.5000000  0.0000000 )
                  (  0.0000000  0.0000000 -1.0000000 )


      isym =  6     inv. 120 deg rotation - cryst. axis [0,0,-1] 

 cryst.   s( 6) = (     1          1          0      )
                  (    -1          0          0      )
                  (     0          0         -1      )

 cart.    s( 6) = (  0.5000000 -0.8660254  0.0000000 )
                  (  0.8660254  0.5000000  0.0000000 )
                  (  0.0000000  0.0000000 -1.0000000 )


   Cartesian axes

     site n.     atom                  positions (alat units)
         1           Se  tau(   1) = (   0.5000005   0.2886748   1.3713592  )
         2           Se  tau(   2) = (   0.0000005   0.5773500   2.1229166  )
         3           Se  tau(   3) = (  -0.4999995   0.8660251   0.6198018  )
         4           Se  tau(   4) = (  -0.0000005   0.5773506   0.8833129  )
         5           Se  tau(   5) = (   0.9999995   0.0000003   1.6348703  )
         6           Se  tau(   6) = (   0.4999995   0.2886754   0.1317555  )
         7           Se  tau(   7) = (   0.2068650   0.7118815   1.2450299  )
         8           Se  tau(   8) = (  -0.2199400   0.6892350   1.2450299  )
         9           Se  tau(   9) = (   0.0130750   0.3309343   1.2450299  )
        10           Se  tau(  10) = (   0.2068650   0.1345313   1.9965873  )
        11           Se  tau(  11) = (   0.7800600   0.1118847   1.9965873  )
        12           Se  tau(  12) = (   0.5130750   0.6196094   1.9965873  )
        13           Se  tau(  13) = (   0.7068650   0.4232064   0.4934726  )
        14           Se  tau(  14) = (   0.2800600   0.4005598   0.4934726  )
        15           Se  tau(  15) = (   0.5130750   0.0422592   0.4934726  )
        16           Se  tau(  16) = (   0.2931350   0.1541439   1.0096422  )
        17           Se  tau(  17) = (   0.7199400   0.1767904   1.0096422  )
        18           Se  tau(  18) = (   0.4869250   0.5350911   1.0096422  )
        19           Se  tau(  19) = (  -0.2068650   0.4428190   1.7611995  )
        20           Se  tau(  20) = (   0.2199400   0.4654656   1.7611995  )
        21           Se  tau(  21) = (  -0.0130750   0.8237663   1.7611995  )
        22           Se  tau(  22) = (   0.2931350   0.7314941   0.2580848  )
        23           Se  tau(  23) = (  -0.2800600   0.7541407   0.2580848  )
        24           Se  tau(  24) = (  -0.0130750   0.2464160   0.2580848  )
        25           Co  tau(  25) = (   0.0000000   0.0000000   1.1273360  )
        26           Co  tau(  26) = (   0.5000000   0.2886751   1.8788934  )
        27           Co  tau(  27) = (  -0.0000000   0.5773503   0.3757787  )
        28           Co  tau(  28) = (  -0.0000005   0.5773506   1.5031155  )
        29           Co  tau(  29) = (   0.9999995   0.0000003   0.0000008  )
        30           Co  tau(  30) = (   0.4999995   0.2886754   0.7515581  )
        31           O   tau(  31) = (   0.1850400   0.6184114   1.3955744  )
        32           O   tau(  32) = (  -0.1280800   0.7170690   1.3955744  )
        33           O   tau(  33) = (  -0.0569600   0.3965704   1.3955744  )
        34           O   tau(  34) = (   0.1850400   0.0410612   2.1471318  )
        35           O   tau(  35) = (   0.8719200   0.1397188   2.1471318  )
        36           O   tau(  36) = (   0.4430400   0.6852455   2.1471318  )
        37           O   tau(  37) = (   0.6850400   0.3297363   0.6440170  )
        38           O   tau(  38) = (   0.3719200   0.4283939   0.6440170  )
        39           O   tau(  39) = (   0.4430400   0.1078952   0.6440170  )
        40           O   tau(  40) = (   0.3149600   0.2476140   0.8590977  )
        41           O   tau(  41) = (   0.6280800   0.1489564   0.8590977  )
        42           O   tau(  42) = (   0.5569600   0.4694551   0.8590977  )
        43           O   tau(  43) = (  -0.1850400   0.5362891   1.6106551  )
        44           O   tau(  44) = (   0.1280800   0.4376315   1.6106551  )
        45           O   tau(  45) = (   0.0569600   0.7581302   1.6106551  )
        46           O   tau(  46) = (   0.3149600   0.8249643   0.1075403  )
        47           O   tau(  47) = (  -0.3719200   0.7263066   0.1075403  )
        48           O   tau(  48) = (   0.0569600   0.1807799   0.1075403  )
        49           O   tau(  49) = (   0.4459250   0.4375593   1.4484915  )
        50           O   tau(  50) = (   0.3981000   0.1674027   1.4484915  )
        51           O   tau(  51) = (   0.6559750   0.2610634   1.4484915  )
        52           O   tau(  52) = (  -0.0540750   0.7262345   2.2000489  )
        53           O   tau(  53) = (  -0.1019000   0.4560778   2.2000489  )
        54           O   tau(  54) = (   0.1559750   0.5497385   2.2000489  )
        55           O   tau(  55) = (  -0.0540750   0.1488842   0.6969342  )
        56           O   tau(  56) = (   0.3981000   0.7447530   0.6969342  )
        57           O   tau(  57) = (  -0.3440250   0.8384136   0.6969342  )
        58           O   tau(  58) = (   0.0540750   0.4284661   0.8061806  )
        59           O   tau(  59) = (   0.1019000   0.6986227   0.8061806  )
        60           O   tau(  60) = (  -0.1559750   0.6049620   0.8061806  )
        61           O   tau(  61) = (   0.5540750   0.7171412   1.5577379  )
        62           O   tau(  62) = (   0.1019000   0.1212724   1.5577379  )
        63           O   tau(  63) = (   0.8440250   0.0276118   1.5577379  )
        64           O   tau(  64) = (   0.5540750   0.1397909   0.0546232  )
        65           O   tau(  65) = (   0.6019000   0.4099476   0.0546232  )
        66           O   tau(  66) = (   0.3440250   0.3162869   0.0546232  )
        67           O   tau(  67) = (   0.6488850   0.0014463   1.2972481  )
        68           O   tau(  68) = (   0.6743050   0.5612278   1.2972481  )
        69           O   tau(  69) = (   0.1768100   0.3033514   1.2972481  )
        70           O   tau(  70) = (   0.1488850   0.2901214   2.0488055  )
        71           O   tau(  71) = (   0.1743050   0.8499029   2.0488055  )
        72           O   tau(  72) = (  -0.3231900   0.5920265   2.0488055  )
        73           O   tau(  73) = (   0.6488850   0.5787965   0.5456908  )
        74           O   tau(  74) = (   0.1743050   0.2725526   0.5456908  )
        75           O   tau(  75) = (   0.6768100   0.0146762   0.5456908  )
        76           O   tau(  76) = (  -0.1488850   0.8645791   0.9574240  )
        77           O   tau(  77) = (  -0.1743050   0.3047976   0.9574240  )
        78           O   tau(  78) = (   0.3231900   0.5626740   0.9574240  )
        79           O   tau(  79) = (  -0.1488850   0.2872289   1.7089813  )
        80           O   tau(  80) = (   0.3256950   0.5934728   1.7089813  )
        81           O   tau(  81) = (  -0.1768100   0.8513492   1.7089813  )
        82           O   tau(  82) = (   0.3511150   0.5759040   0.2058666  )
        83           O   tau(  83) = (   0.3256950   0.0161225   0.2058666  )
        84           O   tau(  84) = (   0.8231900   0.2739989   0.2058666  )
        85           O   tau(  85) = (   0.3816750   0.7293926   1.2508470  )
        86           O   tau(  86) = (  -0.3225100   0.8318694   1.2508470  )
        87           O   tau(  87) = (  -0.0591650   0.1707889   1.2508470  )
        88           O   tau(  88) = (   0.3816750   0.1520423   2.0024044  )
        89           O   tau(  89) = (   0.6774900   0.2545191   2.0024044  )
        90           O   tau(  90) = (   0.4408350   0.4594640   2.0024044  )
        91           O   tau(  91) = (  -0.1183250   0.4407174   0.4992896  )
        92           O   tau(  92) = (   0.1774900   0.5431942   0.4992896  )
        93           O   tau(  93) = (  -0.0591650   0.7481391   0.4992896  )
        94           O   tau(  94) = (   0.1183250   0.1366328   1.0038251  )
        95           O   tau(  95) = (   0.8225100   0.0341560   1.0038251  )
        96           O   tau(  96) = (   0.5591650   0.6952365   1.0038251  )
        97           O   tau(  97) = (   0.6183250   0.4253080   1.7553825  )
        98           O   tau(  98) = (   0.3225100   0.3228312   1.7553825  )
        99           O   tau(  99) = (   0.5591650   0.1178863   1.7553825  )
       100           O   tau( 100) = (   0.1183250   0.7139831   0.2522677  )
       101           O   tau( 101) = (  -0.1774900   0.6115063   0.2522677  )
       102           O   tau( 102) = (   0.0591650   0.4065614   0.2522677  )
       103           Li  tau( 103) = (   0.5025000   0.6301201   1.3744932  )
       104           Li  tau( 104) = (   0.2030500   0.1201177   1.3744932  )
       105           Li  tau( 105) = (   0.7944500   0.1157876   1.3744932  )
       106           Li  tau( 106) = (   0.5025000   0.0527698   2.1260506  )
       107           Li  tau( 107) = (   0.7030500   0.4087929   2.1260506  )
       108           Li  tau( 108) = (   0.2944500   0.4044627   2.1260506  )
       109           Li  tau( 109) = (   0.0025000   0.3414449   0.6229358  )
       110           Li  tau( 110) = (   0.2030500   0.6974680   0.6229358  )
       111           Li  tau( 111) = (  -0.2055500   0.6931379   0.6229358  )
       112           Li  tau( 112) = (  -0.0025000   0.2359053   0.8801789  )
       113           Li  tau( 113) = (   0.2969500   0.7459077   0.8801789  )
       114           Li  tau( 114) = (  -0.2944500   0.7502378   0.8801789  )
       115           Li  tau( 115) = (   0.4975000   0.5245805   1.6317363  )
       116           Li  tau( 116) = (   0.2969500   0.1685574   1.6317363  )
       117           Li  tau( 117) = (   0.7055500   0.1728875   1.6317363  )
       118           Li  tau( 118) = (  -0.0025000   0.8132556   0.1286215  )
       119           Li  tau( 119) = (  -0.2030500   0.4572325   0.1286215  )
       120           Li  tau( 120) = (   0.2055500   0.4615627   0.1286215  )
       121           Li  tau( 121) = (   0.2457500   0.4334457   1.4353919  )
       122           Li  tau( 122) = (   0.0017500   0.8621283   1.4353919  )
       123           Li  tau( 123) = (  -0.2475000   0.4364768   1.4353919  )
       124           Li  tau( 124) = (  -0.2542500   0.7221208   2.1869493  )
       125           Li  tau( 125) = (   0.0017500   0.2847780   2.1869493  )
       126           Li  tau( 126) = (   0.2525000   0.7251519   2.1869493  )
       127           Li  tau( 127) = (   0.7457500   0.1447706   0.6838345  )
       128           Li  tau( 128) = (   0.5017500   0.5734532   0.6838345  )
       129           Li  tau( 129) = (   0.2525000   0.1478017   0.6838345  )
       130           Li  tau( 130) = (   0.2542500   0.4325797   0.8192802  )
       131           Li  tau( 131) = (   0.4982500   0.0038971   0.8192802  )
       132           Li  tau( 132) = (   0.7475000   0.4295486   0.8192802  )
       133           Li  tau( 133) = (  -0.2457500   0.7212548   1.5708376  )
       134           Li  tau( 134) = (  -0.0017500   0.2925722   1.5708376  )
       135           Li  tau( 135) = (   0.2475000   0.7182237   1.5708376  )
       136           Li  tau( 136) = (   0.7542500   0.1439046   0.0677228  )
       137           Li  tau( 137) = (   0.4982500   0.5812474   0.0677228  )
       138           Li  tau( 138) = (   0.2475000   0.1408735   0.0677228  )

   Crystallographic axes

     site n.     atom                  positions (cryst. coord.)
         1           Se  tau(   1) = (  0.6666670  0.3333330  0.6082300  )
         2           Se  tau(   2) = (  0.3333337  0.6666663  0.9415633  )
         3           Se  tau(   3) = (  0.0000003  0.9999997  0.2748967  )
         4           Se  tau(   4) = (  0.3333330  0.6666670  0.3917700  )
         5           Se  tau(   5) = (  0.9999997  0.0000003  0.7251033  )
         6           Se  tau(   6) = (  0.6666663  0.3333337  0.0584367  )
         7           Se  tau(   7) = (  0.6178700  0.8220100  0.5522000  )
         8           Se  tau(   8) = (  0.1779900  0.7958600  0.5522000  )
         9           Se  tau(   9) = (  0.2041400  0.3821300  0.5522000  )
        10           Se  tau(  10) = (  0.2845367  0.1553433  0.8855333  )
        11           Se  tau(  11) = (  0.8446567  0.1291933  0.8855333  )
        12           Se  tau(  12) = (  0.8708067  0.7154633  0.8855333  )
        13           Se  tau(  13) = (  0.9512033  0.4886767  0.2188667  )
        14           Se  tau(  14) = (  0.5113233  0.4625267  0.2188667  )
        15           Se  tau(  15) = (  0.5374733  0.0487967  0.2188667  )
        16           Se  tau(  16) = (  0.3821300  0.1779900  0.4478000  )
        17           Se  tau(  17) = (  0.8220100  0.2041400  0.4478000  )
        18           Se  tau(  18) = (  0.7958600  0.6178700  0.4478000  )
        19           Se  tau(  19) = (  0.0487967  0.5113233  0.7811333  )
        20           Se  tau(  20) = (  0.4886767  0.5374733  0.7811333  )
        21           Se  tau(  21) = (  0.4625267  0.9512033  0.7811333  )
        22           Se  tau(  22) = (  0.7154633  0.8446567  0.1144667  )
        23           Se  tau(  23) = (  0.1553433  0.8708067  0.1144667  )
        24           Se  tau(  24) = (  0.1291933  0.2845367  0.1144667  )
        25           Co  tau(  25) = (  0.0000000  0.0000000  0.5000000  )
        26           Co  tau(  26) = (  0.6666667  0.3333333  0.8333333  )
        27           Co  tau(  27) = (  0.3333333  0.6666667  0.1666667  )
        28           Co  tau(  28) = (  0.3333330  0.6666670  0.6666670  )
        29           Co  tau(  29) = (  0.9999997  0.0000003  0.0000003  )
        30           Co  tau(  30) = (  0.6666663  0.3333337  0.3333337  )
        31           O   tau(  31) = (  0.5420800  0.7140800  0.6189700  )
        32           O   tau(  32) = (  0.2859200  0.8280000  0.6189700  )
        33           O   tau(  33) = (  0.1720000  0.4579200  0.6189700  )
        34           O   tau(  34) = (  0.2087467  0.0474133  0.9523033  )
        35           O   tau(  35) = (  0.9525867  0.1613333  0.9523033  )
        36           O   tau(  36) = (  0.8386667  0.7912533  0.9523033  )
        37           O   tau(  37) = (  0.8754133  0.3807467  0.2856367  )
        38           O   tau(  38) = (  0.6192533  0.4946667  0.2856367  )
        39           O   tau(  39) = (  0.5053333  0.1245867  0.2856367  )
        40           O   tau(  40) = (  0.4579200  0.2859200  0.3810300  )
        41           O   tau(  41) = (  0.7140800  0.1720000  0.3810300  )
        42           O   tau(  42) = (  0.8280000  0.5420800  0.3810300  )
        43           O   tau(  43) = (  0.1245867  0.6192533  0.7143633  )
        44           O   tau(  44) = (  0.3807467  0.5053333  0.7143633  )
        45           O   tau(  45) = (  0.4946667  0.8754133  0.7143633  )
        46           O   tau(  46) = (  0.7912533  0.9525867  0.0476967  )
        47           O   tau(  47) = (  0.0474133  0.8386667  0.0476967  )
        48           O   tau(  48) = (  0.1613333  0.2087467  0.0476967  )
        49           O   tau(  49) = (  0.6985500  0.5052500  0.6424400  )
        50           O   tau(  50) = (  0.4947500  0.1933000  0.6424400  )
        51           O   tau(  51) = (  0.8067000  0.3014500  0.6424400  )
        52           O   tau(  52) = (  0.3652167  0.8385833  0.9757733  )
        53           O   tau(  53) = (  0.1614167  0.5266333  0.9757733  )
        54           O   tau(  54) = (  0.4733667  0.6347833  0.9757733  )
        55           O   tau(  55) = (  0.0318833  0.1719167  0.3091067  )
        56           O   tau(  56) = (  0.8280833  0.8599667  0.3091067  )
        57           O   tau(  57) = (  0.1400333  0.9681167  0.3091067  )
        58           O   tau(  58) = (  0.3014500  0.4947500  0.3575600  )
        59           O   tau(  59) = (  0.5052500  0.8067000  0.3575600  )
        60           O   tau(  60) = (  0.1933000  0.6985500  0.3575600  )
        61           O   tau(  61) = (  0.9681167  0.8280833  0.6908933  )
        62           O   tau(  62) = (  0.1719167  0.1400333  0.6908933  )
        63           O   tau(  63) = (  0.8599667  0.0318833  0.6908933  )
        64           O   tau(  64) = (  0.6347833  0.1614167  0.0242267  )
        65           O   tau(  65) = (  0.8385833  0.4733667  0.0242267  )
        66           O   tau(  66) = (  0.5266333  0.3652167  0.0242267  )
        67           O   tau(  67) = (  0.6497200  0.0016700  0.5753600  )
        68           O   tau(  68) = (  0.9983300  0.6480500  0.5753600  )
        69           O   tau(  69) = (  0.3519500  0.3502800  0.5753600  )
        70           O   tau(  70) = (  0.3163867  0.3350033  0.9086933  )
        71           O   tau(  71) = (  0.6649967  0.9813833  0.9086933  )
        72           O   tau(  72) = (  0.0186167  0.6836133  0.9086933  )
        73           O   tau(  73) = (  0.9830533  0.6683367  0.2420267  )
        74           O   tau(  74) = (  0.3316633  0.3147167  0.2420267  )
        75           O   tau(  75) = (  0.6852833  0.0169467  0.2420267  )
        76           O   tau(  76) = (  0.3502800  0.9983300  0.4246400  )
        77           O   tau(  77) = (  0.0016700  0.3519500  0.4246400  )
        78           O   tau(  78) = (  0.6480500  0.6497200  0.4246400  )
        79           O   tau(  79) = (  0.0169467  0.3316633  0.7579733  )
        80           O   tau(  80) = (  0.6683367  0.6852833  0.7579733  )
        81           O   tau(  81) = (  0.3147167  0.9830533  0.7579733  )
        82           O   tau(  82) = (  0.6836133  0.6649967  0.0913067  )
        83           O   tau(  83) = (  0.3350033  0.0186167  0.0913067  )
        84           O   tau(  84) = (  0.9813833  0.3163867  0.0913067  )
        85           O   tau(  85) = (  0.8027900  0.8422300  0.5547800  )
        86           O   tau(  86) = (  0.1577700  0.9605600  0.5547800  )
        87           O   tau(  87) = (  0.0394400  0.1972100  0.5547800  )
        88           O   tau(  88) = (  0.4694567  0.1755633  0.8881133  )
        89           O   tau(  89) = (  0.8244367  0.2938933  0.8881133  )
        90           O   tau(  90) = (  0.7061067  0.5305433  0.8881133  )
        91           O   tau(  91) = (  0.1361233  0.5088967  0.2214467  )
        92           O   tau(  92) = (  0.4911033  0.6272267  0.2214467  )
        93           O   tau(  93) = (  0.3727733  0.8638767  0.2214467  )
        94           O   tau(  94) = (  0.1972100  0.1577700  0.4452200  )
        95           O   tau(  95) = (  0.8422300  0.0394400  0.4452200  )
        96           O   tau(  96) = (  0.9605600  0.8027900  0.4452200  )
        97           O   tau(  97) = (  0.8638767  0.4911033  0.7785533  )
        98           O   tau(  98) = (  0.5088967  0.3727733  0.7785533  )
        99           O   tau(  99) = (  0.6272267  0.1361233  0.7785533  )
       100           O   tau( 100) = (  0.5305433  0.8244367  0.1118867  )
       101           O   tau( 101) = (  0.1755633  0.7061067  0.1118867  )
       102           O   tau( 102) = (  0.2938933  0.4694567  0.1118867  )
       103           Li  tau( 103) = (  0.8663000  0.7276000  0.6096200  )
       104           Li  tau( 104) = (  0.2724000  0.1387000  0.6096200  )
       105           Li  tau( 105) = (  0.8613000  0.1337000  0.6096200  )
       106           Li  tau( 106) = (  0.5329667  0.0609333  0.9429533  )
       107           Li  tau( 107) = (  0.9390667  0.4720333  0.9429533  )
       108           Li  tau( 108) = (  0.5279667  0.4670333  0.9429533  )
       109           Li  tau( 109) = (  0.1996333  0.3942667  0.2762867  )
       110           Li  tau( 110) = (  0.6057333  0.8053667  0.2762867  )
       111           Li  tau( 111) = (  0.1946333  0.8003667  0.2762867  )
       112           Li  tau( 112) = (  0.1337000  0.2724000  0.3903800  )
       113           Li  tau( 113) = (  0.7276000  0.8613000  0.3903800  )
       114           Li  tau( 114) = (  0.1387000  0.8663000  0.3903800  )
       115           Li  tau( 115) = (  0.8003667  0.6057333  0.7237133  )
       116           Li  tau( 116) = (  0.3942667  0.1946333  0.7237133  )
       117           Li  tau( 117) = (  0.8053667  0.1996333  0.7237133  )
       118           Li  tau( 118) = (  0.4670333  0.9390667  0.0570467  )
       119           Li  tau( 119) = (  0.0609333  0.5279667  0.0570467  )
       120           Li  tau( 120) = (  0.4720333  0.5329667  0.0570467  )
       121           Li  tau( 121) = (  0.4960000  0.5005000  0.6366300  )
       122           Li  tau( 122) = (  0.4995000  0.9955000  0.6366300  )
       123           Li  tau( 123) = (  0.0045000  0.5040000  0.6366300  )
       124           Li  tau( 124) = (  0.1626667  0.8338333  0.9699633  )
       125           Li  tau( 125) = (  0.1661667  0.3288333  0.9699633  )
       126           Li  tau( 126) = (  0.6711667  0.8373333  0.9699633  )
       127           Li  tau( 127) = (  0.8293333  0.1671667  0.3032967  )
       128           Li  tau( 128) = (  0.8328333  0.6621667  0.3032967  )
       129           Li  tau( 129) = (  0.3378333  0.1706667  0.3032967  )
       130           Li  tau( 130) = (  0.5040000  0.4995000  0.3633700  )
       131           Li  tau( 131) = (  0.5005000  0.0045000  0.3633700  )
       132           Li  tau( 132) = (  0.9955000  0.4960000  0.3633700  )
       133           Li  tau( 133) = (  0.1706667  0.8328333  0.6967033  )
       134           Li  tau( 134) = (  0.1671667  0.3378333  0.6967033  )
       135           Li  tau( 135) = (  0.6621667  0.8293333  0.6967033  )
       136           Li  tau( 136) = (  0.8373333  0.1661667  0.0300367  )
       137           Li  tau( 137) = (  0.8338333  0.6711667  0.0300367  )
       138           Li  tau( 138) = (  0.3288333  0.1626667  0.0300367  )

     number of k points=    44  Marzari-Vanderbilt smearing, width (Ry)=  0.0010
                       cart. coord. in units 2pi/alat
        k(    1) = (   0.0000000   0.0000000   0.0000000), wk =   0.0092593
        k(    2) = (   0.0000000   0.0000000   0.0739206), wk =   0.0185185
        k(    3) = (   0.0000000   0.0000000   0.1478412), wk =   0.0185185
        k(    4) = (   0.0000000   0.0000000  -0.2217617), wk =   0.0092593
        k(    5) = (   0.0000000   0.1924501   0.0000000), wk =   0.0555556
        k(    6) = (   0.0000000   0.1924501   0.0739206), wk =   0.0555556
        k(    7) = (   0.0000000   0.1924501   0.1478412), wk =   0.0555556
        k(    8) = (   0.0000000   0.1924501  -0.2217617), wk =   0.0555556
        k(    9) = (   0.0000000   0.3849002   0.0000000), wk =   0.0555556
        k(   10) = (   0.0000000   0.3849002   0.0739206), wk =   0.0555556
        k(   11) = (   0.0000000   0.3849002   0.1478412), wk =   0.0555556
        k(   12) = (   0.0000000   0.3849002  -0.2217617), wk =   0.0555556
        k(   13) = (   0.0000000  -0.5773503   0.0000000), wk =   0.0277778
        k(   14) = (   0.0000000  -0.5773503   0.0739206), wk =   0.0555556
        k(   15) = (   0.0000000  -0.5773503   0.1478412), wk =   0.0555556
        k(   16) = (   0.0000000  -0.5773503  -0.2217617), wk =   0.0277778
        k(   17) = (   0.1666667   0.2886751   0.0000000), wk =   0.0555556
        k(   18) = (   0.1666667   0.2886751   0.0739206), wk =   0.0555556
        k(   19) = (   0.1666667   0.2886751   0.1478412), wk =   0.0555556
        k(   20) = (   0.1666667   0.2886751  -0.2217617), wk =   0.0555556
        k(   21) = (   0.1666667   0.4811252   0.0000000), wk =   0.0555556
        k(   22) = (   0.1666667   0.4811252   0.0739206), wk =   0.0555556
        k(   23) = (   0.1666667   0.4811252   0.1478412), wk =   0.0555556
        k(   24) = (   0.1666667   0.4811252  -0.2217617), wk =   0.0555556
        k(   25) = (   0.3333333   0.5773503   0.0000000), wk =   0.0185185
        k(   26) = (   0.3333333   0.5773503   0.0739206), wk =   0.0185185
        k(   27) = (   0.3333333   0.5773503   0.1478412), wk =   0.0185185
        k(   28) = (   0.3333333   0.5773503  -0.2217617), wk =   0.0185185
        k(   29) = (   0.0000000  -0.1924501   0.0739206), wk =   0.0555556
        k(   30) = (   0.0000000  -0.1924501   0.1478412), wk =   0.0555556
        k(   31) = (   0.0000000  -0.3849002   0.0739206), wk =   0.0555556
        k(   32) = (   0.0000000  -0.3849002   0.1478412), wk =   0.0555556
        k(   33) = (  -0.1666667  -0.2886751   0.0739206), wk =   0.0555556
        k(   34) = (  -0.1666667  -0.2886751   0.1478412), wk =   0.0555556
        k(   35) = (  -0.1666667   0.4811252   0.0000000), wk =   0.0555556
        k(   36) = (  -0.1666667  -0.4811252   0.0739206), wk =   0.0555556
        k(   37) = (  -0.1666667   0.4811252  -0.0739206), wk =   0.0555556
        k(   38) = (  -0.5000000   0.0962250  -0.0739206), wk =   0.0555556
        k(   39) = (  -0.1666667  -0.4811252   0.1478412), wk =   0.0555556
        k(   40) = (  -0.1666667   0.4811252  -0.1478412), wk =   0.0555556
        k(   41) = (  -0.5000000   0.0962250  -0.1478412), wk =   0.0555556
        k(   42) = (  -0.1666667   0.4811252   0.2217617), wk =   0.0555556
        k(   43) = (  -0.3333333  -0.5773503   0.0739206), wk =   0.0185185
        k(   44) = (  -0.3333333  -0.5773503   0.1478412), wk =   0.0185185

                       cryst. coord.
        k(    1) = (   0.0000000   0.0000000   0.0000000), wk =   0.0092593
        k(    2) = (   0.0000000   0.0000000   0.1666667), wk =   0.0185185
        k(    3) = (   0.0000000   0.0000000   0.3333333), wk =   0.0185185
        k(    4) = (   0.0000000   0.0000000  -0.5000000), wk =   0.0092593
        k(    5) = (   0.0000000   0.1666667   0.0000000), wk =   0.0555556
        k(    6) = (   0.0000000   0.1666667   0.1666667), wk =   0.0555556
        k(    7) = (   0.0000000   0.1666667   0.3333333), wk =   0.0555556
        k(    8) = (   0.0000000   0.1666667  -0.5000000), wk =   0.0555556
        k(    9) = (   0.0000000   0.3333333   0.0000000), wk =   0.0555556
        k(   10) = (   0.0000000   0.3333333   0.1666667), wk =   0.0555556
        k(   11) = (   0.0000000   0.3333333   0.3333333), wk =   0.0555556
        k(   12) = (   0.0000000   0.3333333  -0.5000000), wk =   0.0555556
        k(   13) = (   0.0000000  -0.5000000   0.0000000), wk =   0.0277778
        k(   14) = (   0.0000000  -0.5000000   0.1666667), wk =   0.0555556
        k(   15) = (   0.0000000  -0.5000000   0.3333333), wk =   0.0555556
        k(   16) = (   0.0000000  -0.5000000  -0.5000000), wk =   0.0277778
        k(   17) = (   0.1666667   0.1666667   0.0000000), wk =   0.0555556
        k(   18) = (   0.1666667   0.1666667   0.1666667), wk =   0.0555556
        k(   19) = (   0.1666667   0.1666667   0.3333333), wk =   0.0555556
        k(   20) = (   0.1666667   0.1666667  -0.5000000), wk =   0.0555556
        k(   21) = (   0.1666667   0.3333333   0.0000000), wk =   0.0555556
        k(   22) = (   0.1666667   0.3333333   0.1666667), wk =   0.0555556
        k(   23) = (   0.1666667   0.3333333   0.3333333), wk =   0.0555556
        k(   24) = (   0.1666667   0.3333333  -0.5000000), wk =   0.0555556
        k(   25) = (   0.3333333   0.3333333   0.0000000), wk =   0.0185185
        k(   26) = (   0.3333333   0.3333333   0.1666667), wk =   0.0185185
        k(   27) = (   0.3333333   0.3333333   0.3333333), wk =   0.0185185
        k(   28) = (   0.3333333   0.3333333  -0.5000000), wk =   0.0185185
        k(   29) = (   0.0000000  -0.1666667   0.1666667), wk =   0.0555556
        k(   30) = (   0.0000000  -0.1666667   0.3333333), wk =   0.0555556
        k(   31) = (   0.0000000  -0.3333333   0.1666667), wk =   0.0555556
        k(   32) = (   0.0000000  -0.3333333   0.3333333), wk =   0.0555556
        k(   33) = (  -0.1666667  -0.1666667   0.1666667), wk =   0.0555556
        k(   34) = (  -0.1666667  -0.1666667   0.3333333), wk =   0.0555556
        k(   35) = (  -0.1666667   0.5000000   0.0000000), wk =   0.0555556
        k(   36) = (  -0.1666667  -0.3333333   0.1666667), wk =   0.0555556
        k(   37) = (  -0.1666667   0.5000000  -0.1666667), wk =   0.0555556
        k(   38) = (  -0.5000000   0.3333333  -0.1666667), wk =   0.0555556
        k(   39) = (  -0.1666667  -0.3333333   0.3333333), wk =   0.0555556
        k(   40) = (  -0.1666667   0.5000000  -0.3333333), wk =   0.0555556
        k(   41) = (  -0.5000000   0.3333333  -0.3333333), wk =   0.0555556
        k(   42) = (  -0.1666667   0.5000000   0.5000000), wk =   0.0555556
        k(   43) = (  -0.3333333  -0.3333333   0.1666667), wk =   0.0185185
        k(   44) = (  -0.3333333  -0.3333333   0.3333333), wk =   0.0185185

     Dense  grid:  1598091 G-vectors     FFT dimensions: ( 120, 120, 270)

     Dynamical RAM for                 wfc:      46.95 MB

     Dynamical RAM for     wfc (w. buffer):    2112.75 MB

     Dynamical RAM for           str. fact:       2.44 MB

     Dynamical RAM for           local pot:       0.00 MB

     Dynamical RAM for          nlocal pot:     134.45 MB

     Dynamical RAM for                qrad:       6.42 MB

     Dynamical RAM for          rho,v,vnew:       4.14 MB

     Dynamical RAM for               rhoin:       1.38 MB

     Dynamical RAM for            rho*nmix:       9.76 MB

     Dynamical RAM for           G-vectors:       2.59 MB

     Dynamical RAM for          h,s,v(r/c):       1.92 MB

     Dynamical RAM for          <psi|beta>:      16.58 MB

     Dynamical RAM for                 psi:      93.90 MB

     Dynamical RAM for                hpsi:      93.90 MB

     Dynamical RAM for      wfcinit/wfcrot:     106.21 MB

     Estimated static dynamical RAM per process >       2.22 GB

     Estimated max dynamical RAM per process >       2.43 GB

     Estimated total dynamical RAM >      97.15 GB

     Initial potential from superposition of free atoms

     starting charge    1025.8253, renormalised to    1026.0000
     Starting wfcs are  636 randomized atomic wfcs

     total cpu time spent up to now is      168.5 secs

     Self-consistent Calculation

     iteration #  1     ecut=   100.00 Ry     beta= 0.20
     Davidson diagonalization with overlap

---- Real-time Memory Report at c_bands before calling an iterative solver
          2612 MiB given to the printing process from OS
         -1636 MiB allocation reported by mallinfo(arena+hblkhd)
        150924 MiB available memory on the node where the printing process lives
------------------
     c_bands:  1 eigenvalues not converged
     c_bands:  1 eigenvalues not converged
     c_bands:  2 eigenvalues not converged
     c_bands:  1 eigenvalues not converged
     c_bands:  2 eigenvalues not converged
     c_bands:  1 eigenvalues not converged
     c_bands:  1 eigenvalues not converged
     c_bands:  1 eigenvalues not converged
     c_bands:  1 eigenvalues not converged
     c_bands:  2 eigenvalues not converged
     c_bands:  1 eigenvalues not converged
     c_bands:  1 eigenvalues not converged
     c_bands:  1 eigenvalues not converged
     c_bands:  1 eigenvalues not converged
     c_bands:  2 eigenvalues not converged
     ethr =  5.00E-06,  avg # of iterations = 19.9

     total cpu time spent up to now is     2242.5 secs

     total energy              =  -10536.88791736 Ry
     estimated scf accuracy    <      39.58419928 Ry

     iteration #  2     ecut=   100.00 Ry     beta= 0.20
     Davidson diagonalization with overlap

---- Real-time Memory Report at c_bands before calling an iterative solver
          2755 MiB given to the printing process from OS
         -1603 MiB allocation reported by mallinfo(arena+hblkhd)
        149707 MiB available memory on the node where the printing process lives
------------------
     ethr =  3.86E-03,  avg # of iterations =  3.0
     Minimization algorithm failed to find Fermi energy: reverting to bisection
     Possible cause: smearing is larger than the electronic band-gap.

     total cpu time spent up to now is     2765.1 secs

     total energy              =  -10535.14991446 Ry
     estimated scf accuracy    <      52.60263445 Ry

     iteration #  3     ecut=   100.00 Ry     beta= 0.20
     Davidson diagonalization with overlap

---- Real-time Memory Report at c_bands before calling an iterative solver
          2764 MiB given to the printing process from OS
         -1593 MiB allocation reported by mallinfo(arena+hblkhd)
        149304 MiB available memory on the node where the printing process lives
------------------
     ethr =  3.86E-03,  avg # of iterations =  2.1

     total cpu time spent up to now is     3249.0 secs

     total energy              =  -10537.25363004 Ry
     estimated scf accuracy    <      44.63879522 Ry

     iteration #  4     ecut=   100.00 Ry     beta= 0.20
     Davidson diagonalization with overlap

---- Real-time Memory Report at c_bands before calling an iterative solver
          2766 MiB given to the printing process from OS
         -1592 MiB allocation reported by mallinfo(arena+hblkhd)
        149241 MiB available memory on the node where the printing process lives
------------------
     ethr =  3.86E-03,  avg # of iterations =  2.0

     total cpu time spent up to now is     3727.6 secs

     total energy              =  -10538.67814631 Ry
     estimated scf accuracy    <       1.80580582 Ry

     iteration #  5     ecut=   100.00 Ry     beta= 0.20
     Davidson diagonalization with overlap

---- Real-time Memory Report at c_bands before calling an iterative solver
          2768 MiB given to the printing process from OS
         -1591 MiB allocation reported by mallinfo(arena+hblkhd)
        149181 MiB available memory on the node where the printing process lives
------------------
     c_bands:  1 eigenvalues not converged
     ethr =  1.76E-04,  avg # of iterations = 14.2

     total cpu time spent up to now is     4444.6 secs

     total energy              =  -10538.66776278 Ry
     estimated scf accuracy    <       0.83003441 Ry

     iteration #  6     ecut=   100.00 Ry     beta= 0.20
     Davidson diagonalization with overlap

---- Real-time Memory Report at c_bands before calling an iterative solver
          2770 MiB given to the printing process from OS
         -1590 MiB allocation reported by mallinfo(arena+hblkhd)
        149145 MiB available memory on the node where the printing process lives
------------------
     c_bands:  1 eigenvalues not converged
     c_bands:  1 eigenvalues not converged
     c_bands:  2 eigenvalues not converged
     ethr =  8.09E-05,  avg # of iterations =  9.1

     total cpu time spent up to now is     5005.7 secs

     total energy              =  -10538.59443943 Ry
     estimated scf accuracy    <       6.08419189 Ry

     iteration #  7     ecut=   100.00 Ry     beta= 0.20
     Davidson diagonalization with overlap

---- Real-time Memory Report at c_bands before calling an iterative solver
          2773 MiB given to the printing process from OS
         -1589 MiB allocation reported by mallinfo(arena+hblkhd)
        149096 MiB available memory on the node where the printing process lives
------------------
     c_bands:  2 eigenvalues not converged
     ethr =  8.09E-05,  avg # of iterations =  5.8

     total cpu time spent up to now is     5522.6 secs

     total energy              =  -10538.58970441 Ry
     estimated scf accuracy    <       0.73954802 Ry

     iteration #  8     ecut=   100.00 Ry     beta= 0.20
     Davidson diagonalization with overlap

---- Real-time Memory Report at c_bands before calling an iterative solver
          2775 MiB given to the printing process from OS
         -1587 MiB allocation reported by mallinfo(arena+hblkhd)
        149045 MiB available memory on the node where the printing process lives
------------------
     c_bands:  2 eigenvalues not converged
     c_bands:  1 eigenvalues not converged
     c_bands:  1 eigenvalues not converged
     c_bands:  1 eigenvalues not converged
     ethr =  7.21E-05,  avg # of iterations =  4.7

     total cpu time spent up to now is     6036.6 secs

     total energy              =  -10538.43725878 Ry
     estimated scf accuracy    <      11.86625894 Ry

     iteration #  9     ecut=   100.00 Ry     beta= 0.20
     Davidson diagonalization with overlap

---- Real-time Memory Report at c_bands before calling an iterative solver
          2776 MiB given to the printing process from OS
         -1586 MiB allocation reported by mallinfo(arena+hblkhd)
        148991 MiB available memory on the node where the printing process lives
------------------
     ethr =  7.21E-05,  avg # of iterations =  2.8

     total cpu time spent up to now is     6522.5 secs

     total energy              =  -10538.54647141 Ry
     estimated scf accuracy    <       1.04638972 Ry

     iteration # 10     ecut=   100.00 Ry     beta= 0.20
     Davidson diagonalization with overlap

---- Real-time Memory Report at c_bands before calling an iterative solver
          2777 MiB given to the printing process from OS
         -1585 MiB allocation reported by mallinfo(arena+hblkhd)
        148939 MiB available memory on the node where the printing process lives
------------------
     ethr =  7.21E-05,  avg # of iterations =  1.3

     total cpu time spent up to now is     6958.8 secs

     total energy              =  -10538.58758931 Ry
     estimated scf accuracy    <       3.30151959 Ry

     iteration # 11     ecut=   100.00 Ry     beta= 0.20
     Davidson diagonalization with overlap

---- Real-time Memory Report at c_bands before calling an iterative solver
          2780 MiB given to the printing process from OS
         -1584 MiB allocation reported by mallinfo(arena+hblkhd)
        148884 MiB available memory on the node where the printing process lives
------------------
     ethr =  7.21E-05,  avg # of iterations =  1.0

     total cpu time spent up to now is     7383.6 secs

     total energy              =  -10538.59766124 Ry
     estimated scf accuracy    <       0.95005774 Ry

     iteration # 12     ecut=   100.00 Ry     beta= 0.20
     Davidson diagonalization with overlap

---- Real-time Memory Report at c_bands before calling an iterative solver
          2780 MiB given to the printing process from OS
         -1584 MiB allocation reported by mallinfo(arena+hblkhd)
        148884 MiB available memory on the node where the printing process lives
------------------
     ethr =  7.21E-05,  avg # of iterations =  1.0

     total cpu time spent up to now is     7808.0 secs

     total energy              =  -10538.60016125 Ry
     estimated scf accuracy    <       0.21613687 Ry

     iteration # 13     ecut=   100.00 Ry     beta= 0.20
     Davidson diagonalization with overlap

---- Real-time Memory Report at c_bands before calling an iterative solver
          2780 MiB given to the printing process from OS
         -1584 MiB allocation reported by mallinfo(arena+hblkhd)
        148885 MiB available memory on the node where the printing process lives
------------------
     ethr =  2.11E-05,  avg # of iterations =  2.3

     total cpu time spent up to now is     8264.5 secs

     total energy              =  -10538.59748641 Ry
     estimated scf accuracy    <       0.44905396 Ry

     iteration # 14     ecut=   100.00 Ry     beta= 0.20
     Davidson diagonalization with overlap

---- Real-time Memory Report at c_bands before calling an iterative solver
          2780 MiB given to the printing process from OS
         -1584 MiB allocation reported by mallinfo(arena+hblkhd)
        148888 MiB available memory on the node where the printing process lives
------------------
     ethr =  2.11E-05,  avg # of iterations =  1.2

     total cpu time spent up to now is     8696.5 secs

     total energy              =  -10538.60118031 Ry
     estimated scf accuracy    <       0.09292526 Ry

     iteration # 15     ecut=   100.00 Ry     beta= 0.20
     Davidson diagonalization with overlap

---- Real-time Memory Report at c_bands before calling an iterative solver
          2780 MiB given to the printing process from OS
         -1584 MiB allocation reported by mallinfo(arena+hblkhd)
        148885 MiB available memory on the node where the printing process lives
------------------
     c_bands:  2 eigenvalues not converged
     c_bands:  1 eigenvalues not converged
     c_bands:  1 eigenvalues not converged
     ethr =  9.06E-06,  avg # of iterations =  5.3

     total cpu time spent up to now is     9196.3 secs

     total energy              =  -10538.60196180 Ry
     estimated scf accuracy    <       0.11381806 Ry

     iteration # 16     ecut=   100.00 Ry     beta= 0.20
     Davidson diagonalization with overlap

---- Real-time Memory Report at c_bands before calling an iterative solver
          2780 MiB given to the printing process from OS
         -1584 MiB allocation reported by mallinfo(arena+hblkhd)
        148882 MiB available memory on the node where the printing process lives
------------------
     ethr =  9.06E-06,  avg # of iterations =  1.5

     total cpu time spent up to now is     9627.8 secs

     total energy              =  -10538.60260083 Ry
     estimated scf accuracy    <       0.00578121 Ry

     iteration # 17     ecut=   100.00 Ry     beta= 0.20
     Davidson diagonalization with overlap

---- Real-time Memory Report at c_bands before calling an iterative solver
          2780 MiB given to the printing process from OS
         -1584 MiB allocation reported by mallinfo(arena+hblkhd)
        148874 MiB available memory on the node where the printing process lives
------------------
     c_bands:  1 eigenvalues not converged
     c_bands:  1 eigenvalues not converged
     c_bands:  1 eigenvalues not converged
     c_bands:  1 eigenvalues not converged
     c_bands:  1 eigenvalues not converged
     c_bands:  1 eigenvalues not converged
     c_bands:  1 eigenvalues not converged
     c_bands:  1 eigenvalues not converged
     c_bands:  1 eigenvalues not converged
     c_bands:  1 eigenvalues not converged
     c_bands:  1 eigenvalues not converged
     c_bands:  1 eigenvalues not converged
     c_bands:  1 eigenvalues not converged
     c_bands:  1 eigenvalues not converged
     c_bands:  1 eigenvalues not converged
     ethr =  5.63E-07,  avg # of iterations = 17.0

     total cpu time spent up to now is    10298.8 secs

     total energy              =  -10538.60260218 Ry
     estimated scf accuracy    <       0.00130963 Ry

     iteration # 18     ecut=   100.00 Ry     beta= 0.20
     Davidson diagonalization with overlap

---- Real-time Memory Report at c_bands before calling an iterative solver
          2781 MiB given to the printing process from OS
         -1584 MiB allocation reported by mallinfo(arena+hblkhd)
        148870 MiB available memory on the node where the printing process lives
------------------
     c_bands:  1 eigenvalues not converged
     c_bands:  1 eigenvalues not converged
     c_bands:  1 eigenvalues not converged
     c_bands:  1 eigenvalues not converged
     c_bands:  1 eigenvalues not converged
     c_bands:  1 eigenvalues not converged
     c_bands:  1 eigenvalues not converged
     ethr =  1.28E-07,  avg # of iterations = 10.5

     total cpu time spent up to now is    10878.0 secs

     total energy              =  -10538.60262267 Ry
     estimated scf accuracy    <       0.00032502 Ry

     iteration # 19     ecut=   100.00 Ry     beta= 0.20
     Davidson diagonalization with overlap

---- Real-time Memory Report at c_bands before calling an iterative solver
          2782 MiB given to the printing process from OS
         -1584 MiB allocation reported by mallinfo(arena+hblkhd)
        148869 MiB available memory on the node where the printing process lives
------------------
     c_bands:  1 eigenvalues not converged
     c_bands:  1 eigenvalues not converged
     c_bands:  1 eigenvalues not converged
     c_bands:  1 eigenvalues not converged
     c_bands:  1 eigenvalues not converged
     c_bands:  1 eigenvalues not converged
     c_bands:  1 eigenvalues not converged
     c_bands:  1 eigenvalues not converged
     c_bands:  1 eigenvalues not converged
     c_bands:  1 eigenvalues not converged
     ethr =  3.17E-08,  avg # of iterations = 13.7

     total cpu time spent up to now is    11500.8 secs

     total energy              =  -10538.60262986 Ry
     estimated scf accuracy    <       0.00007019 Ry

     iteration # 20     ecut=   100.00 Ry     beta= 0.20
     Davidson diagonalization with overlap

---- Real-time Memory Report at c_bands before calling an iterative solver
          2782 MiB given to the printing process from OS
         -1584 MiB allocation reported by mallinfo(arena+hblkhd)
        148865 MiB available memory on the node where the printing process lives
------------------
     c_bands:  1 eigenvalues not converged
     c_bands:  1 eigenvalues not converged
     c_bands:  1 eigenvalues not converged
     c_bands:  1 eigenvalues not converged
     c_bands:  1 eigenvalues not converged
     c_bands:  1 eigenvalues not converged
     ethr =  6.84E-09,  avg # of iterations = 13.0

     total cpu time spent up to now is    12129.3 secs

     total energy              =  -10538.60263140 Ry
     estimated scf accuracy    <       0.00000856 Ry

     iteration # 21     ecut=   100.00 Ry     beta= 0.20
     Davidson diagonalization with overlap

---- Real-time Memory Report at c_bands before calling an iterative solver
          2783 MiB given to the printing process from OS
         -1584 MiB allocation reported by mallinfo(arena+hblkhd)
        148868 MiB available memory on the node where the printing process lives
------------------
     c_bands:  1 eigenvalues not converged
     c_bands:  1 eigenvalues not converged
     c_bands:  1 eigenvalues not converged
     c_bands:  1 eigenvalues not converged
     c_bands:  1 eigenvalues not converged
     c_bands:  1 eigenvalues not converged
     c_bands:  1 eigenvalues not converged
     c_bands:  1 eigenvalues not converged
     c_bands:  1 eigenvalues not converged
     c_bands:  1 eigenvalues not converged
     c_bands:  1 eigenvalues not converged
     c_bands:  1 eigenvalues not converged
     ethr =  8.34E-10,  avg # of iterations = 15.0

     total cpu time spent up to now is    12814.2 secs

     total energy              =  -10538.60263145 Ry
     estimated scf accuracy    <       0.00000236 Ry

     iteration # 22     ecut=   100.00 Ry     beta= 0.20
     Davidson diagonalization with overlap

---- Real-time Memory Report at c_bands before calling an iterative solver
          2783 MiB given to the printing process from OS
         -1584 MiB allocation reported by mallinfo(arena+hblkhd)
        148864 MiB available memory on the node where the printing process lives
------------------
     c_bands:  1 eigenvalues not converged
     c_bands:  1 eigenvalues not converged
     c_bands:  1 eigenvalues not converged
     c_bands:  1 eigenvalues not converged
     c_bands:  1 eigenvalues not converged
     ethr =  2.30E-10,  avg # of iterations =  6.9

     total cpu time spent up to now is    13348.9 secs

     total energy              =  -10538.60263151 Ry
     estimated scf accuracy    <       0.00000008 Ry

     iteration # 23     ecut=   100.00 Ry     beta= 0.20
     Davidson diagonalization with overlap

---- Real-time Memory Report at c_bands before calling an iterative solver
          2783 MiB given to the printing process from OS
         -1584 MiB allocation reported by mallinfo(arena+hblkhd)
        148864 MiB available memory on the node where the printing process lives
------------------
     c_bands:  1 eigenvalues not converged
     c_bands:  1 eigenvalues not converged
     c_bands:  1 eigenvalues not converged
     c_bands:  1 eigenvalues not converged
     c_bands:  1 eigenvalues not converged
     c_bands:  1 eigenvalues not converged
     c_bands:  1 eigenvalues not converged
     c_bands:  1 eigenvalues not converged
     c_bands:  1 eigenvalues not converged
     c_bands:  1 eigenvalues not converged
     ethr =  8.10E-12,  avg # of iterations = 13.6

     total cpu time spent up to now is    14224.3 secs

     total energy              =  -10538.60263151 Ry
     estimated scf accuracy    <       0.00000010 Ry

     iteration # 24     ecut=   100.00 Ry     beta= 0.20
     Davidson diagonalization with overlap

---- Real-time Memory Report at c_bands before calling an iterative solver
          2783 MiB given to the printing process from OS
         -1584 MiB allocation reported by mallinfo(arena+hblkhd)
        148862 MiB available memory on the node where the printing process lives
------------------
     c_bands:  1 eigenvalues not converged
     c_bands:  1 eigenvalues not converged
     ethr =  8.10E-12,  avg # of iterations =  4.2

     total cpu time spent up to now is    14721.7 secs

     total energy              =  -10538.60263152 Ry
     estimated scf accuracy    <       0.00000004 Ry

     iteration # 25     ecut=   100.00 Ry     beta= 0.20
     Davidson diagonalization with overlap

---- Real-time Memory Report at c_bands before calling an iterative solver
          2783 MiB given to the printing process from OS
         -1584 MiB allocation reported by mallinfo(arena+hblkhd)
        148860 MiB available memory on the node where the printing process lives
------------------
     c_bands:  1 eigenvalues not converged
     c_bands:  1 eigenvalues not converged
     ethr =  3.42E-12,  avg # of iterations =  2.8

     total cpu time spent up to now is    15210.3 secs

     End of self-consistent calculation

          k = 0.0000 0.0000 0.0000 (199733 PWs)   bands (ev):

   -88.1384 -88.1384 -88.1384 -88.1059 -88.1059 -88.1059 -51.5964 -51.5964
   -51.5964 -51.5964 -51.5964 -51.5964 -51.5653 -51.5653 -51.5653 -51.5653
   -51.5653 -51.5653 -51.5050 -51.5050 -51.5050 -51.4355 -51.4355 -51.4355
   -44.6204 -44.6204 -44.6204 -44.6204 -44.6204 -44.6204 -44.6204 -44.6204
   -44.6203 -44.6203 -44.6203 -44.6203 -44.6202 -44.6202 -44.6202 -44.6201
   -44.6201 -44.6201 -44.6140 -44.6140 -44.6140 -44.6140 -44.6140 -44.6140
   -44.6139 -44.6139 -44.6139 -44.6139 -44.6139 -44.6139 -44.6138 -44.6138
   -44.6138 -44.6137 -44.6137 -44.6137 -44.5913 -44.5913 -44.5913 -44.5913
   -44.5913 -44.5913 -44.5913 -44.5913 -44.5913 -44.5913 -44.5913 -44.5913
   -44.4701 -44.4701 -44.4701 -44.4701 -44.4701 -44.4701 -44.4701 -44.4701
   -44.4701 -44.4700 -44.4700 -44.4700 -44.4699 -44.4699 -44.4699 -44.4699
   -44.4699 -44.4699 -44.4610 -44.4610 -44.4610 -44.4610 -44.4610 -44.4610
   -44.4609 -44.4609 -44.4609 -44.4609 -44.4609 -44.4609 -44.4608 -44.4608
   -44.4608 -44.4608 -44.4608 -44.4608 -44.4355 -44.4355 -44.4355 -44.4355
   -44.4355 -44.4355 -44.4355 -44.4355 -44.4355 -44.4355 -44.4355 -44.4355
   -44.3962 -44.3962 -44.3962 -44.3962 -44.3962 -44.3962 -44.3961 -44.3961
   -44.3961 -44.3961 -44.3961 -44.3961 -44.3960 -44.3960 -44.3960 -44.3959
   -44.3959 -44.3959 -44.3725 -44.3725 -44.3725 -44.3725 -44.3724 -44.3724
   -37.7959 -37.7959 -37.7959 -37.7936 -37.7936 -37.7936 -37.7935 -37.7935
   -37.7935 -37.7784 -37.7784 -37.7784 -37.7783 -37.7783 -37.7783 -37.7780
   -37.7780 -37.7780 -37.7770 -37.7770 -37.7770 -37.7760 -37.7760 -37.7760
   -37.7758 -37.7758 -37.7758 -37.7713 -37.7713 -37.7713 -37.7712 -37.7712
   -37.7712 -37.7691 -37.7691 -37.7691 -16.0889 -16.0442 -16.0442 -15.9365
   -15.9365 -15.9244 -15.9244 -15.9206 -15.9206 -15.9206 -15.9206 -15.8665
   -15.8663 -15.8663 -15.8663 -15.8663 -15.8489 -15.8489 -15.7615 -15.7573
   -15.7573 -15.7526 -15.7526 -15.7525 -13.5137 -13.4159 -13.4159 -13.2414
   -13.2414 -13.2200 -13.2200 -13.2008 -13.2008 -13.2008 -13.2008 -13.1220
   -13.1220 -13.1219 -13.1219 -13.1130 -13.1129 -13.1093 -13.0930 -13.0930
   -13.0928 -13.0928 -13.0712 -13.0712 -13.0545 -13.0545 -13.0544 -13.0544
   -13.0435 -13.0433 -13.0363 -13.0362 -13.0362 -12.9981 -12.9783 -12.9783
   -12.9458 -12.9456 -12.9428 -12.9428 -12.9425 -12.9425 -12.9295 -12.9295
   -12.9294 -12.9294 -12.9292 -12.9289  -6.1528  -6.1528  -6.1042  -5.9031
    -5.9031  -5.9031  -5.9031  -5.8945  -5.8323  -5.8323  -5.8253  -5.8253
    -5.8079  -5.8079  -5.8051  -5.7802  -5.7802  -5.7305  -5.7305  -5.7305
    -5.7305  -5.6181  -5.6181  -5.6001  -1.7309  -1.7309  -1.7133  -1.4538
    -1.4538  -1.4411  -1.4411  -1.4410  -1.4410  -1.4370  -1.4370  -1.3974
    -1.3624  -1.3624  -1.3624  -1.3624  -1.3296  -1.3296  -1.2229  -1.2229
    -1.2128  -1.2128  -1.2032  -1.2032  -1.2032  -1.2032  -1.1584  -1.1108
    -1.1108  -1.1108  -1.1108  -1.0252  -1.0252  -1.0149  -1.0149  -1.0148
    -0.9048  -0.8071  -0.8071  -0.7819  -0.7819  -0.7744  -0.7744  -0.7744
    -0.7744  -0.6104  -0.6103  -0.6044  -0.6044  -0.6043  -0.6043  -0.3964
    -0.3964  -0.3381  -0.3380  -0.2941  -0.2941  -0.2941  -0.2941  -0.2346
    -0.2021  -0.2021  -0.1471  -0.1152  -0.1152  -0.0747  -0.0747  -0.0747
    -0.0747   0.0502   0.0502   0.0797   0.9685   1.1549   1.1549   1.1931
     1.1931   1.1931   1.1931   1.2254   1.2255   1.2487   1.2487   1.2487
     1.2487   1.3720   1.3751   1.3751   1.3942   1.3943   1.4387   1.5458
     1.5458   1.5917   1.5917   1.6713   1.6713   1.6713   1.6713   1.7795
     1.7795   1.8174   1.8174   1.8175   1.8175   1.8378   1.8380   1.8582
     1.8583   1.8594   1.8594   1.8595   1.8595   1.9619   1.9817   1.9817
     1.9817   1.9817   2.0120   2.0120   2.2362   2.2469   2.2469   2.2741
     2.2741   2.2742   2.2742   2.3001   2.3002   2.4878   2.4878   2.5216
     2.5216   2.5685   2.5685   2.5685   2.5685   2.6254   2.6505   2.6918
     2.6919   2.7212   2.7212   2.7473   2.7473   2.7474   2.7474   2.8229
     2.8229   2.8230   2.8230   2.8433   2.8434   2.8463   2.8936   2.8936
     2.9607   2.9834   2.9834   3.0446   3.0507   3.0507   3.0508   3.0508
     3.0793   3.0944   3.0945   3.1022   3.1022   3.1023   3.1023   3.1202
     3.1202   3.1851   3.1851   3.1983   3.1984   3.2028   3.2029   3.2235
     3.2242   3.2242   3.2661   3.2661   3.2662   3.2662   3.3070   3.3070
     3.3777   3.3777   3.3778   3.3778   3.4373   3.4381   3.4381   3.4456
     3.5789   3.5789   3.6746   3.6746   3.7131   3.7131   3.7132   3.7132
     3.8259   3.8259   3.8304   3.8305   3.8430   3.8430   3.8430   3.8430
     3.8978   4.0774   4.0774   4.1918   5.6582   5.6582   5.6659   5.6758
     5.6758   5.6800   5.6800   5.6800   5.6800   5.7749   5.7749   5.7749
     5.7749   5.7804   5.7804   5.9083   5.9083   5.9103   6.1270   6.1270
     6.3187   6.3187   6.3187   6.3187   6.7258   6.7258   6.7258   6.7258
     6.9412   6.9412   8.8094   8.8094   8.8294   8.9300   8.9300   8.9383
     9.0566   9.0567   9.0731   9.0731   9.0731   9.0731   9.2747   9.2747
     9.4754   9.4754   9.4919   9.4919   9.4920   9.4920   9.6195   9.6195
     9.6196   9.6196   9.6652   9.6900   9.7482   9.7483   9.7674   9.7674
     9.7674   9.7674   9.7701   9.7701  10.0009  10.0009  10.1337  10.1338
    10.1711  10.1711  10.1712  10.1712  10.2184  10.2184  10.2541  10.3555
    10.3774  10.3774  10.3887  10.3887  10.3887  10.3887  10.5299  10.5299
    10.8149  10.8149  11.1582  11.3073  11.3591  11.4049  11.4049  11.4610
    11.4610  11.4615  11.4615  11.4771  11.4771  11.4772  11.4772  11.6184
    11.6184  11.6185  11.6185  11.6829  11.6829  12.4392  12.4392  12.4909
    12.9278  12.9278  12.9279  12.9279  12.9686  12.9686  13.0399  13.0400
    13.0845  13.0846  13.2210  13.2992  13.2992  13.2992  13.2992  13.4415

     occupation numbers 
     1.0000   1.0000   1.0000   1.0000   1.0000   1.0000   1.0000   1.0000
     1.0000   1.0000   1.0000   1.0000   1.0000   1.0000   1.0000   1.0000
     1.0000   1.0000   1.0000   1.0000   1.0000   1.0000   1.0000   1.0000
     1.0000   1.0000   1.0000   1.0000   1.0000   1.0000   1.0000   1.0000
     1.0000   1.0000   1.0000   1.0000   1.0000   1.0000   1.0000   1.0000
     1.0000   1.0000   1.0000   1.0000   1.0000   1.0000   1.0000   1.0000
     1.0000   1.0000   1.0000   1.0000   1.0000   1.0000   1.0000   1.0000
     1.0000   1.0000   1.0000   1.0000   1.0000   1.0000   1.0000   1.0000
     1.0000   1.0000   1.0000   1.0000   1.0000   1.0000   1.0000   1.0000
     1.0000   1.0000   1.0000   1.0000   1.0000   1.0000   1.0000   1.0000
     1.0000   1.0000   1.0000   1.0000   1.0000   1.0000   1.0000   1.0000
     1.0000   1.0000   1.0000   1.0000   1.0000   1.0000   1.0000   1.0000
     1.0000   1.0000   1.0000   1.0000   1.0000   1.0000   1.0000   1.0000
     1.0000   1.0000   1.0000   1.0000   1.0000   1.0000   1.0000   1.0000
     1.0000   1.0000   1.0000   1.0000   1.0000   1.0000   1.0000   1.0000
     1.0000   1.0000   1.0000   1.0000   1.0000   1.0000   1.0000   1.0000
     1.0000   1.0000   1.0000   1.0000   1.0000   1.0000   1.0000   1.0000
     1.0000   1.0000   1.0000   1.0000   1.0000   1.0000   1.0000   1.0000
     1.0000   1.0000   1.0000   1.0000   1.0000   1.0000   1.0000   1.0000
     1.0000   1.0000   1.0000   1.0000   1.0000   1.0000   1.0000   1.0000
     1.0000   1.0000   1.0000   1.0000   1.0000   1.0000   1.0000   1.0000
     1.0000   1.0000   1.0000   1.0000   1.0000   1.0000   1.0000   1.0000
     1.0000   1.0000   1.0000   1.0000   1.0000   1.0000   1.0000   1.0000
     1.0000   1.0000   1.0000   1.0000   1.0000   1.0000   1.0000   1.0000
     1.0000   1.0000   1.0000   1.0000   1.0000   1.0000   1.0000   1.0000
     1.0000   1.0000   1.0000   1.0000   1.0000   1.0000   1.0000   1.0000
     1.0000   1.0000   1.0000   1.0000   1.0000   1.0000   1.0000   1.0000
     1.0000   1.0000   1.0000   1.0000   1.0000   1.0000   1.0000   1.0000
     1.0000   1.0000   1.0000   1.0000   1.0000   1.0000   1.0000   1.0000
     1.0000   1.0000   1.0000   1.0000   1.0000   1.0000   1.0000   1.0000
     1.0000   1.0000   1.0000   1.0000   1.0000   1.0000   1.0000   1.0000
     1.0000   1.0000   1.0000   1.0000   1.0000   1.0000   1.0000   1.0000
     1.0000   1.0000   1.0000   1.0000   1.0000   1.0000   1.0000   1.0000
     1.0000   1.0000   1.0000   1.0000   1.0000   1.0000   1.0000   1.0000
     1.0000   1.0000   1.0000   1.0000   1.0000   1.0000   1.0000   1.0000
     1.0000   1.0000   1.0000   1.0000   1.0000   1.0000   1.0000   1.0000
     1.0000   1.0000   1.0000   1.0000   1.0000   1.0000   1.0000   1.0000
     1.0000   1.0000   1.0000   1.0000   1.0000   1.0000   1.0000   1.0000
     1.0000   1.0000   1.0000   1.0000   1.0000   1.0000   1.0000   1.0000
     1.0000   1.0000   1.0000   1.0000   1.0000   1.0000   1.0000   1.0000
     1.0000   1.0000   1.0000   1.0000   1.0000   1.0000   1.0000   1.0000
     1.0000   1.0000   1.0000   1.0000   1.0000   1.0000   1.0000   1.0000
     1.0000   1.0000   1.0000   1.0000   1.0000   1.0000   1.0000   1.0000
     1.0000   1.0000   1.0000   1.0000   1.0000   1.0000   1.0000   1.0000
     1.0000   1.0000   1.0000   1.0000   1.0000   1.0000   1.0000   1.0000
     1.0000   1.0000   1.0000   1.0000   1.0000   1.0000   1.0000   1.0000
     1.0000   1.0000   1.0000   1.0000   1.0000   1.0000   1.0000   1.0000
     1.0000   1.0000   1.0000   1.0000   1.0000   1.0000   1.0000   1.0000
     1.0000   1.0000   1.0000   1.0000   1.0000   1.0000   1.0000   1.0000
     1.0000   1.0000   1.0000   1.0000   1.0000   1.0000   1.0000   1.0000
     1.0000   1.0000   1.0000   1.0000   1.0000   1.0000   1.0000   1.0000
     1.0000   1.0000   1.0000   1.0000   1.0000   1.0000   1.0000   1.0000
     1.0000   1.0000   1.0000   1.0000   1.0000   1.0000   1.0000   1.0000
     1.0000   1.0000   1.0000   1.0000   1.0000   1.0000   1.0000   1.0000
     1.0000   1.0000   1.0000   1.0000   1.0000   1.0000   1.0000   1.0000
     1.0000   1.0000   1.0000   1.0000   1.0000   1.0000   1.0000   1.0000
     1.0000   1.0000   1.0000   1.0000   1.0000   1.0000   1.0000   1.0000
     1.0000   1.0000   1.0000   1.0000   1.0000   1.0000   1.0000   1.0000
     1.0000   1.0000   1.0000   1.0000   1.0000   1.0000   1.0000   1.0000
     1.0000   1.0000   1.0000   1.0000   1.0000   1.0000   1.0000   1.0000
     1.0000   1.0000   1.0000   1.0000   1.0000   1.0000   1.0000   1.0000
     1.0000   1.0000   1.0000   1.0000   1.0000   1.0000   1.0000   1.0000
     1.0000   1.0000   1.0000   1.0000   1.0000   1.0000   1.0000   1.0000
     1.0000   1.0000   1.0000   1.0000   1.0000   1.0000   1.0000   1.0000
     0.0428   0.0428   0.0428   0.0427   0.0000   0.0000   0.0000   0.0000
     0.0000   0.0000   0.0000   0.0000   0.0000   0.0000   0.0000   0.0000
     0.0000   0.0000   0.0000   0.0000   0.0000   0.0000   0.0000   0.0000
     0.0000   0.0000   0.0000   0.0000   0.0000   0.0000   0.0000   0.0000
     0.0000   0.0000   0.0000   0.0000   0.0000   0.0000   0.0000   0.0000
     0.0000   0.0000   0.0000   0.0000   0.0000   0.0000   0.0000   0.0000
     0.0000   0.0000   0.0000   0.0000   0.0000   0.0000   0.0000   0.0000
     0.0000   0.0000   0.0000   0.0000   0.0000   0.0000   0.0000   0.0000
     0.0000   0.0000   0.0000   0.0000   0.0000   0.0000   0.0000   0.0000
     0.0000   0.0000   0.0000   0.0000   0.0000   0.0000   0.0000   0.0000
     0.0000   0.0000   0.0000   0.0000   0.0000   0.0000   0.0000   0.0000
     0.0000   0.0000   0.0000   0.0000   0.0000   0.0000   0.0000   0.0000
     0.0000   0.0000   0.0000   0.0000   0.0000   0.0000   0.0000   0.0000

          k = 0.0000 0.0000 0.0739 (199751 PWs)   bands (ev):

   -88.1384 -88.1384 -88.1384 -88.1059 -88.1059 -88.1059 -51.5964 -51.5964
   -51.5964 -51.5964 -51.5964 -51.5964 -51.5653 -51.5653 -51.5653 -51.5653
   -51.5653 -51.5653 -51.5050 -51.5050 -51.5050 -51.4355 -51.4355 -51.4355
   -44.6204 -44.6204 -44.6204 -44.6204 -44.6204 -44.6204 -44.6204 -44.6204
   -44.6203 -44.6203 -44.6203 -44.6203 -44.6202 -44.6202 -44.6202 -44.6201
   -44.6201 -44.6201 -44.6140 -44.6140 -44.6140 -44.6140 -44.6140 -44.6140
   -44.6139 -44.6139 -44.6139 -44.6139 -44.6139 -44.6139 -44.6138 -44.6138
   -44.6138 -44.6137 -44.6137 -44.6137 -44.5913 -44.5913 -44.5913 -44.5913
   -44.5913 -44.5913 -44.5913 -44.5913 -44.5913 -44.5913 -44.5913 -44.5913
   -44.4701 -44.4701 -44.4701 -44.4701 -44.4701 -44.4701 -44.4701 -44.4701
   -44.4701 -44.4700 -44.4700 -44.4700 -44.4699 -44.4699 -44.4699 -44.4699
   -44.4699 -44.4699 -44.4610 -44.4610 -44.4610 -44.4610 -44.4610 -44.4610
   -44.4609 -44.4609 -44.4609 -44.4609 -44.4609 -44.4609 -44.4608 -44.4608
   -44.4608 -44.4608 -44.4608 -44.4608 -44.4355 -44.4355 -44.4355 -44.4355
   -44.4355 -44.4355 -44.4355 -44.4355 -44.4355 -44.4355 -44.4355 -44.4355
   -44.3962 -44.3962 -44.3962 -44.3962 -44.3962 -44.3962 -44.3961 -44.3961
   -44.3961 -44.3961 -44.3961 -44.3961 -44.3960 -44.3960 -44.3960 -44.3959
   -44.3959 -44.3959 -44.3725 -44.3725 -44.3725 -44.3725 -44.3724 -44.3724
   -37.7959 -37.7959 -37.7959 -37.7936 -37.7936 -37.7936 -37.7935 -37.7935
   -37.7935 -37.7784 -37.7784 -37.7784 -37.7783 -37.7783 -37.7783 -37.7780
   -37.7780 -37.7780 -37.7770 -37.7770 -37.7770 -37.7760 -37.7760 -37.7760
   -37.7758 -37.7758 -37.7758 -37.7713 -37.7713 -37.7713 -37.7712 -37.7712
   -37.7712 -37.7691 -37.7691 -37.7691 -16.0875 -16.0568 -16.0310 -15.9397
   -15.9360 -15.9359 -15.9248 -15.9248 -15.9166 -15.9166 -15.9092 -15.8706
   -15.8706 -15.8685 -15.8618 -15.8618 -15.8495 -15.8494 -15.7612 -15.7580
   -15.7568 -15.7526 -15.7526 -15.7525 -13.5107 -13.4437 -13.3853 -13.2517
   -13.2401 -13.2401 -13.2124 -13.2123 -13.1907 -13.1882 -13.1882 -13.1337
   -13.1337 -13.1132 -13.1132 -13.1131 -13.1127 -13.1125 -13.0938 -13.0936
   -13.0902 -13.0900 -13.0728 -13.0727 -13.0586 -13.0585 -13.0506 -13.0505
   -13.0436 -13.0434 -13.0364 -13.0364 -13.0360 -12.9968 -12.9813 -12.9762
   -12.9458 -12.9456 -12.9439 -12.9436 -12.9417 -12.9414 -12.9301 -12.9299
   -12.9291 -12.9291 -12.9289 -12.9288  -6.1596  -6.1438  -6.1067  -5.9104
    -5.9104  -5.8932  -5.8932  -5.8917  -5.8457  -5.8359  -5.8359  -5.8202
    -5.8039  -5.7973  -5.7973  -5.7841  -5.7785  -5.7403  -5.7403  -5.7233
    -5.7233  -5.6213  -5.6141  -5.6008  -1.7356  -1.7258  -1.7138  -1.4537
    -1.4537  -1.4466  -1.4466  -1.4437  -1.4337  -1.4336  -1.4283  -1.3989
    -1.3748  -1.3748  -1.3513  -1.3512  -1.3302  -1.3302  -1.2227  -1.2227
    -1.2187  -1.2111  -1.2111  -1.2046  -1.1933  -1.1933  -1.1617  -1.1300
    -1.1300  -1.0899  -1.0899  -1.0311  -1.0191  -1.0190  -1.0190  -1.0182
    -0.8957  -0.8059  -0.8059  -0.7999  -0.7820  -0.7819  -0.7689  -0.7681
    -0.7680  -0.6092  -0.6091  -0.6085  -0.6084  -0.6002  -0.6002  -0.4273
    -0.3595  -0.3390  -0.3390  -0.3113  -0.3113  -0.2785  -0.2785  -0.2405
    -0.1954  -0.1954  -0.1472  -0.1273  -0.1025  -0.0986  -0.0986  -0.0560
    -0.0560   0.0397   0.0600   0.0792   0.9762   1.1163   1.1833   1.1880
     1.1880   1.2003   1.2004   1.2238   1.2238   1.2243   1.2243   1.2783
     1.2783   1.3589   1.3675   1.3874   1.3874   1.4013   1.4470   1.5331
     1.5475   1.5954   1.5954   1.6533   1.6534   1.6880   1.6880   1.7432
     1.8119   1.8119   1.8217   1.8218   1.8223   1.8362   1.8363   1.8556
     1.8556   1.8597   1.8598   1.8630   1.8631   1.9552   1.9747   1.9747
     1.9900   1.9901   2.0113   2.0113   2.2364   2.2446   2.2484   2.2744
     2.2745   2.2752   2.2752   2.2977   2.2977   2.4910   2.4910   2.5073
     2.5405   2.5492   2.5492   2.5865   2.5866   2.6192   2.6532   2.6952
     2.6953   2.7036   2.7344   2.7426   2.7427   2.7441   2.7441   2.8200
     2.8201   2.8313   2.8313   2.8416   2.8417   2.8482   2.8822   2.9036
     2.9656   2.9789   2.9944   3.0385   3.0386   3.0461   3.0629   3.0630
     3.0840   3.0896   3.0897   3.0931   3.0931   3.1126   3.1191   3.1191
     3.1194   3.1645   3.1893   3.1893   3.1965   3.2107   3.2108   3.2197
     3.2231   3.2330   3.2560   3.2560   3.2741   3.2742   3.2854   3.3308
     3.3688   3.3688   3.3889   3.3889   3.4213   3.4348   3.4349   3.4603
     3.5462   3.6151   3.6774   3.6774   3.7087   3.7087   3.7159   3.7159
     3.7983   3.8306   3.8306   3.8390   3.8390   3.8465   3.8465   3.8500
     3.8963   4.0558   4.1029   4.1873   5.6569   5.6598   5.6656   5.6760
     5.6760   5.6791   5.6791   5.6807   5.6807   5.7737   5.7737   5.7762
     5.7762   5.7802   5.7802   5.9079   5.9088   5.9102   6.1326   6.1326
     6.2631   6.2631   6.3809   6.3809   6.6597   6.6597   6.7863   6.7863
     6.9345   6.9345   8.8089   8.8113   8.8280   8.9251   8.9346   8.9387
     9.0572   9.0573   9.0694   9.0695   9.0759   9.0760   9.2371   9.3256
     9.4753   9.4754   9.4789   9.4789   9.5061   9.5062   9.6061   9.6215
     9.6216   9.6240   9.6241   9.7334   9.7335   9.7419   9.7677   9.7677
     9.7683   9.7684   9.7744   9.7744   9.9495  10.0489  10.1322  10.1323
    10.1586  10.1586  10.1821  10.1822  10.2304  10.2304  10.2617  10.3623
    10.3624  10.3637  10.3642  10.3774  10.4080  10.4080  10.4932  10.5682
    10.7564  10.8790  11.1351  11.3159  11.3685  11.3986  11.4005  11.4385
    11.4611  11.4611  11.4693  11.4694  11.4877  11.4888  11.4889  11.5926
    11.5926  11.6413  11.6414  11.6819  11.6819  12.4334  12.4537  12.4854
    12.9293  12.9294  12.9304  12.9304  12.9348  13.0126  13.0157  13.0157
    13.1127  13.1127  13.2064  13.2739  13.2739  13.3155  13.3156  13.3730

     occupation numbers 
     1.0000   1.0000   1.0000   1.0000   1.0000   1.0000   1.0000   1.0000
     1.0000   1.0000   1.0000   1.0000   1.0000   1.0000   1.0000   1.0000
     1.0000   1.0000   1.0000   1.0000   1.0000   1.0000   1.0000   1.0000
     1.0000   1.0000   1.0000   1.0000   1.0000   1.0000   1.0000   1.0000
     1.0000   1.0000   1.0000   1.0000   1.0000   1.0000   1.0000   1.0000
     1.0000   1.0000   1.0000   1.0000   1.0000   1.0000   1.0000   1.0000
     1.0000   1.0000   1.0000   1.0000   1.0000   1.0000   1.0000   1.0000
     1.0000   1.0000   1.0000   1.0000   1.0000   1.0000   1.0000   1.0000
     1.0000   1.0000   1.0000   1.0000   1.0000   1.0000   1.0000   1.0000
     1.0000   1.0000   1.0000   1.0000   1.0000   1.0000   1.0000   1.0000
     1.0000   1.0000   1.0000   1.0000   1.0000   1.0000   1.0000   1.0000
     1.0000   1.0000   1.0000   1.0000   1.0000   1.0000   1.0000   1.0000
     1.0000   1.0000   1.0000   1.0000   1.0000   1.0000   1.0000   1.0000
     1.0000   1.0000   1.0000   1.0000   1.0000   1.0000   1.0000   1.0000
     1.0000   1.0000   1.0000   1.0000   1.0000   1.0000   1.0000   1.0000
     1.0000   1.0000   1.0000   1.0000   1.0000   1.0000   1.0000   1.0000
     1.0000   1.0000   1.0000   1.0000   1.0000   1.0000   1.0000   1.0000
     1.0000   1.0000   1.0000   1.0000   1.0000   1.0000   1.0000   1.0000
     1.0000   1.0000   1.0000   1.0000   1.0000   1.0000   1.0000   1.0000
     1.0000   1.0000   1.0000   1.0000   1.0000   1.0000   1.0000   1.0000
     1.0000   1.0000   1.0000   1.0000   1.0000   1.0000   1.0000   1.0000
     1.0000   1.0000   1.0000   1.0000   1.0000   1.0000   1.0000   1.0000
     1.0000   1.0000   1.0000   1.0000   1.0000   1.0000   1.0000   1.0000
     1.0000   1.0000   1.0000   1.0000   1.0000   1.0000   1.0000   1.0000
     1.0000   1.0000   1.0000   1.0000   1.0000   1.0000   1.0000   1.0000
     1.0000   1.0000   1.0000   1.0000   1.0000   1.0000   1.0000   1.0000
     1.0000   1.0000   1.0000   1.0000   1.0000   1.0000   1.0000   1.0000
     1.0000   1.0000   1.0000   1.0000   1.0000   1.0000   1.0000   1.0000
     1.0000   1.0000   1.0000   1.0000   1.0000   1.0000   1.0000   1.0000
     1.0000   1.0000   1.0000   1.0000   1.0000   1.0000   1.0000   1.0000
     1.0000   1.0000   1.0000   1.0000   1.0000   1.0000   1.0000   1.0000
     1.0000   1.0000   1.0000   1.0000   1.0000   1.0000   1.0000   1.0000
     1.0000   1.0000   1.0000   1.0000   1.0000   1.0000   1.0000   1.0000
     1.0000   1.0000   1.0000   1.0000   1.0000   1.0000   1.0000   1.0000
     1.0000   1.0000   1.0000   1.0000   1.0000   1.0000   1.0000   1.0000
     1.0000   1.0000   1.0000   1.0000   1.0000   1.0000   1.0000   1.0000
     1.0000   1.0000   1.0000   1.0000   1.0000   1.0000   1.0000   1.0000
     1.0000   1.0000   1.0000   1.0000   1.0000   1.0000   1.0000   1.0000
     1.0000   1.0000   1.0000   1.0000   1.0000   1.0000   1.0000   1.0000
     1.0000   1.0000   1.0000   1.0000   1.0000   1.0000   1.0000   1.0000
     1.0000   1.0000   1.0000   1.0000   1.0000   1.0000   1.0000   1.0000
     1.0000   1.0000   1.0000   1.0000   1.0000   1.0000   1.0000   1.0000
     1.0000   1.0000   1.0000   1.0000   1.0000   1.0000   1.0000   1.0000
     1.0000   1.0000   1.0000   1.0000   1.0000   1.0000   1.0000   1.0000
     1.0000   1.0000   1.0000   1.0000   1.0000   1.0000   1.0000   1.0000
     1.0000   1.0000   1.0000   1.0000   1.0000   1.0000   1.0000   1.0000
     1.0000   1.0000   1.0000   1.0000   1.0000   1.0000   1.0000   1.0000
     1.0000   1.0000   1.0000   1.0000   1.0000   1.0000   1.0000   1.0000
     1.0000   1.0000   1.0000   1.0000   1.0000   1.0000   1.0000   1.0000
     1.0000   1.0000   1.0000   1.0000   1.0000   1.0000   1.0000   1.0000
     1.0000   1.0000   1.0000   1.0000   1.0000   1.0000   1.0000   1.0000
     1.0000   1.0000   1.0000   1.0000   1.0000   1.0000   1.0000   1.0000
     1.0000   1.0000   1.0000   1.0000   1.0000   1.0000   1.0000   1.0000
     1.0000   1.0000   1.0000   1.0000   1.0000   1.0000   1.0000   1.0000
     1.0000   1.0000   1.0000   1.0000   1.0000   1.0000   1.0000   1.0000
     1.0000   1.0000   1.0000   1.0000   1.0000   1.0000   1.0000   1.0000
     1.0000   1.0000   1.0000   1.0000   1.0000   1.0000   1.0000   1.0000
     1.0000   1.0000   1.0000   1.0000   1.0000   1.0000   1.0000   1.0000
     1.0000   1.0000   1.0000   1.0000   1.0000   1.0000   1.0000   1.0000
     1.0000   1.0000   1.0000   1.0000   1.0000   1.0000   1.0000   1.0000
     1.0000   1.0000   1.0000   1.0000   1.0000   1.0000   1.0000   1.0000
     1.0000   1.0000   1.0000   1.0000   1.0000   1.0000   1.0000   1.0000
     1.0000   1.0000   1.0000   1.0000   1.0000   1.0000   1.0000   1.0000
     1.0000   1.0000   1.0000   1.0000   1.0000   1.0000   1.0000   1.0000
     1.0006   1.0006   0.0000   0.0000   0.0000   0.0000   0.0000   0.0000
     0.0000   0.0000   0.0000   0.0000   0.0000   0.0000   0.0000   0.0000
     0.0000   0.0000   0.0000   0.0000   0.0000   0.0000   0.0000   0.0000
     0.0000   0.0000   0.0000   0.0000   0.0000   0.0000   0.0000   0.0000
     0.0000   0.0000   0.0000   0.0000   0.0000   0.0000   0.0000   0.0000
     0.0000   0.0000   0.0000   0.0000   0.0000   0.0000   0.0000   0.0000
     0.0000   0.0000   0.0000   0.0000   0.0000   0.0000   0.0000   0.0000
     0.0000   0.0000   0.0000   0.0000   0.0000   0.0000   0.0000   0.0000
     0.0000   0.0000   0.0000   0.0000   0.0000   0.0000   0.0000   0.0000
     0.0000   0.0000   0.0000   0.0000   0.0000   0.0000   0.0000   0.0000
     0.0000   0.0000   0.0000   0.0000   0.0000   0.0000   0.0000   0.0000
     0.0000   0.0000   0.0000   0.0000   0.0000   0.0000   0.0000   0.0000
[...]
     atom   94 type  3   force =     0.00000000    0.00000000    0.00000000
     atom   95 type  3   force =     0.00000000    0.00000000    0.00000000
     atom   96 type  3   force =     0.00000000    0.00000000    0.00000000
     atom   97 type  3   force =     0.00000000    0.00000000    0.00000000
     atom   98 type  3   force =     0.00000000    0.00000000    0.00000000
     atom   99 type  3   force =     0.00000000    0.00000000    0.00000000
     atom  100 type  3   force =     0.00000000    0.00000000    0.00000000
     atom  101 type  3   force =     0.00000000    0.00000000    0.00000000
     atom  102 type  3   force =     0.00000000    0.00000000    0.00000000
     atom  103 type  2   force =     0.00000000    0.00000000    0.00000000
     atom  104 type  2   force =     0.00000000    0.00000000    0.00000000
     atom  105 type  2   force =     0.00000000    0.00000000    0.00000000
     atom  106 type  2   force =     0.00000000    0.00000000    0.00000000
     atom  107 type  2   force =     0.00000000    0.00000000    0.00000000
     atom  108 type  2   force =     0.00000000    0.00000000    0.00000000
     atom  109 type  2   force =     0.00000000    0.00000000    0.00000000
     atom  110 type  2   force =     0.00000000    0.00000000    0.00000000
     atom  111 type  2   force =     0.00000000    0.00000000    0.00000000
     atom  112 type  2   force =     0.00000000    0.00000000    0.00000000
     atom  113 type  2   force =     0.00000000    0.00000000    0.00000000
     atom  114 type  2   force =     0.00000000    0.00000000    0.00000000
     atom  115 type  2   force =     0.00000000    0.00000000    0.00000000
     atom  116 type  2   force =     0.00000000    0.00000000    0.00000000
     atom  117 type  2   force =     0.00000000    0.00000000    0.00000000
     atom  118 type  2   force =     0.00000000    0.00000000    0.00000000
     atom  119 type  2   force =     0.00000000    0.00000000    0.00000000
     atom  120 type  2   force =     0.00000000    0.00000000    0.00000000
     atom  121 type  2   force =     0.00000000    0.00000000    0.00000000
     atom  122 type  2   force =     0.00000000    0.00000000    0.00000000
     atom  123 type  2   force =     0.00000000    0.00000000    0.00000000
     atom  124 type  2   force =     0.00000000    0.00000000    0.00000000
     atom  125 type  2   force =     0.00000000    0.00000000    0.00000000
     atom  126 type  2   force =     0.00000000    0.00000000    0.00000000
     atom  127 type  2   force =     0.00000000    0.00000000    0.00000000
     atom  128 type  2   force =     0.00000000    0.00000000    0.00000000
     atom  129 type  2   force =     0.00000000    0.00000000    0.00000000
     atom  130 type  2   force =     0.00000000    0.00000000    0.00000000
     atom  131 type  2   force =     0.00000000    0.00000000    0.00000000
     atom  132 type  2   force =     0.00000000    0.00000000    0.00000000
     atom  133 type  2   force =     0.00000000    0.00000000    0.00000000
     atom  134 type  2   force =     0.00000000    0.00000000    0.00000000
     atom  135 type  2   force =     0.00000000    0.00000000    0.00000000
     atom  136 type  2   force =     0.00000000    0.00000000    0.00000000
     atom  137 type  2   force =     0.00000000    0.00000000    0.00000000
     atom  138 type  2   force =     0.00000000    0.00000000    0.00000000
     The SCF correction term to forces
     atom    1 type  4   force =    -0.00000001    0.00000000   -0.00000293
     atom    2 type  4   force =    -0.00000001    0.00000000   -0.00001065
     atom    3 type  4   force =    -0.00000001    0.00000000    0.00000308
     atom    4 type  4   force =     0.00000001   -0.00000000    0.00000293
     atom    5 type  4   force =     0.00000001   -0.00000000   -0.00000308
     atom    6 type  4   force =     0.00000001   -0.00000000    0.00001065
     atom    7 type  4   force =    -0.00002877   -0.00001345    0.00001137
     atom    8 type  4   force =     0.00002603   -0.00001819    0.00001137
     atom    9 type  4   force =     0.00000274    0.00003164    0.00001137
     atom   10 type  4   force =     0.00000491    0.00000690   -0.00002524
     atom   11 type  4   force =    -0.00000843    0.00000080   -0.00002524
     atom   12 type  4   force =     0.00000352   -0.00000770   -0.00002524
     atom   13 type  4   force =    -0.00001260   -0.00000662    0.00001473
     atom   14 type  4   force =     0.00001203   -0.00000761    0.00001473
     atom   15 type  4   force =     0.00000057    0.00001422    0.00001473
     atom   16 type  4   force =     0.00002877    0.00001345   -0.00001136
     atom   17 type  4   force =    -0.00002603    0.00001819   -0.00001137
     atom   18 type  4   force =    -0.00000274   -0.00003164   -0.00001136
     atom   19 type  4   force =     0.00001260    0.00000662   -0.00001473
     atom   20 type  4   force =    -0.00001203    0.00000760   -0.00001473
     atom   21 type  4   force =    -0.00000057   -0.00001422   -0.00001473
     atom   22 type  4   force =    -0.00000491   -0.00000690    0.00002524
     atom   23 type  4   force =     0.00000843   -0.00000080    0.00002524
     atom   24 type  4   force =    -0.00000352    0.00000770    0.00002524
     atom   25 type  1   force =    -0.00000000    0.00000000    0.00000000
     atom   26 type  1   force =    -0.00000000    0.00000000   -0.00001209
     atom   27 type  1   force =    -0.00000000    0.00000000    0.00001209
     atom   28 type  1   force =     0.00000001   -0.00000001   -0.00000257
     atom   29 type  1   force =     0.00000001   -0.00000000   -0.00000001
     atom   30 type  1   force =     0.00000001   -0.00000001    0.00000253
     atom   31 type  3   force =    -0.00001079   -0.00000618    0.00000793
     atom   32 type  3   force =     0.00001074   -0.00000625    0.00000793
     atom   33 type  3   force =     0.00000004    0.00001243    0.00000793
     atom   34 type  3   force =     0.00001913    0.00000038   -0.00000989
     atom   35 type  3   force =    -0.00000989    0.00001638   -0.00000989
     atom   36 type  3   force =    -0.00000924   -0.00001675   -0.00000989
     atom   37 type  3   force =    -0.00000966   -0.00000455    0.00000730
     atom   38 type  3   force =     0.00000877   -0.00000609    0.00000730
     atom   39 type  3   force =     0.00000089    0.00001064    0.00000730
     atom   40 type  3   force =     0.00001079    0.00000618   -0.00000793
     atom   41 type  3   force =    -0.00001074    0.00000625   -0.00000793
     atom   42 type  3   force =    -0.00000004   -0.00001243   -0.00000793
     atom   43 type  3   force =     0.00000966    0.00000455   -0.00000730
     atom   44 type  3   force =    -0.00000877    0.00000609   -0.00000730
     atom   45 type  3   force =    -0.00000089   -0.00001064   -0.00000730
     atom   46 type  3   force =    -0.00001913   -0.00000038    0.00000989
     atom   47 type  3   force =     0.00000989   -0.00001638    0.00000989
     atom   48 type  3   force =     0.00000924    0.00001675    0.00000989
     atom   49 type  3   force =    -0.00000379   -0.00000187   -0.00000049
     atom   50 type  3   force =     0.00000351   -0.00000235   -0.00000049
     atom   51 type  3   force =     0.00000028    0.00000421   -0.00000049
     atom   52 type  3   force =    -0.00000110   -0.00000230   -0.00000225
     atom   53 type  3   force =     0.00000254    0.00000020   -0.00000225
     atom   54 type  3   force =    -0.00000144    0.00000210   -0.00000225
     atom   55 type  3   force =    -0.00000431    0.00000096   -0.00000126
     atom   56 type  3   force =     0.00000132   -0.00000422   -0.00000126
     atom   57 type  3   force =     0.00000299    0.00000325   -0.00000126
     atom   58 type  3   force =     0.00000379    0.00000187    0.00000049
     atom   59 type  3   force =    -0.00000351    0.00000235    0.00000049
     atom   60 type  3   force =    -0.00000028   -0.00000421    0.00000049
     atom   61 type  3   force =     0.00000431   -0.00000096    0.00000126
     atom   62 type  3   force =    -0.00000132    0.00000422    0.00000126
     atom   63 type  3   force =    -0.00000299   -0.00000325    0.00000126
     atom   64 type  3   force =     0.00000110    0.00000230    0.00000225
     atom   65 type  3   force =    -0.00000254   -0.00000020    0.00000225
     atom   66 type  3   force =     0.00000144   -0.00000210    0.00000225
     atom   67 type  3   force =    -0.00000447   -0.00000412    0.00000511
     atom   68 type  3   force =     0.00000580   -0.00000182    0.00000511
     atom   69 type  3   force =    -0.00000133    0.00000593    0.00000511
     atom   70 type  3   force =     0.00000258    0.00000212   -0.00000409
     atom   71 type  3   force =    -0.00000313    0.00000118   -0.00000409
     atom   72 type  3   force =     0.00000055   -0.00000330   -0.00000409
     atom   73 type  3   force =    -0.00000004   -0.00000562    0.00000545
     atom   74 type  3   force =     0.00000488    0.00000278    0.00000545
     atom   75 type  3   force =    -0.00000485    0.00000284    0.00000545
     atom   76 type  3   force =     0.00000447    0.00000412   -0.00000511
     atom   77 type  3   force =    -0.00000580    0.00000182   -0.00000511
     atom   78 type  3   force =     0.00000133   -0.00000593   -0.00000511
     atom   79 type  3   force =     0.00000004    0.00000562   -0.00000545
     atom   80 type  3   force =    -0.00000488   -0.00000278   -0.00000545
     atom   81 type  3   force =     0.00000485   -0.00000284   -0.00000545
     atom   82 type  3   force =    -0.00000258   -0.00000212    0.00000409
     atom   83 type  3   force =     0.00000313   -0.00000118    0.00000409
     atom   84 type  3   force =    -0.00000055    0.00000330    0.00000409
     atom   85 type  3   force =    -0.00001009   -0.00001557    0.00001250
     atom   86 type  3   force =     0.00001853   -0.00000096    0.00001250
     atom   87 type  3   force =    -0.00000843    0.00001652    0.00001250
     atom   88 type  3   force =     0.00000284   -0.00000188   -0.00000478
     atom   89 type  3   force =     0.00000021    0.00000340   -0.00000478
     atom   90 type  3   force =    -0.00000305   -0.00000152   -0.00000478
     atom   91 type  3   force =    -0.00000061   -0.00000260    0.00000421
     atom   92 type  3   force =     0.00000256    0.00000077    0.00000421
     atom   93 type  3   force =    -0.00000195    0.00000183    0.00000421
     atom   94 type  3   force =     0.00001009    0.00001557   -0.00001250
     atom   95 type  3   force =    -0.00001853    0.00000096   -0.00001250
     atom   96 type  3   force =     0.00000843   -0.00001652   -0.00001250
     atom   97 type  3   force =     0.00000061    0.00000260   -0.00000421
     atom   98 type  3   force =    -0.00000256   -0.00000077   -0.00000421
     atom   99 type  3   force =     0.00000195   -0.00000183   -0.00000421
     atom  100 type  3   force =    -0.00000284    0.00000188    0.00000478
     atom  101 type  3   force =    -0.00000021   -0.00000340    0.00000478
     atom  102 type  3   force =     0.00000305    0.00000152    0.00000478
     atom  103 type  2   force =     0.00000013   -0.00000242    0.00000250
     atom  104 type  2   force =     0.00000203    0.00000133    0.00000250
     atom  105 type  2   force =    -0.00000216    0.00000109    0.00000250
     atom  106 type  2   force =    -0.00000003    0.00000021   -0.00000145
     atom  107 type  2   force =    -0.00000017   -0.00000013   -0.00000145
     atom  108 type  2   force =     0.00000020   -0.00000008   -0.00000145
     atom  109 type  2   force =    -0.00000003    0.00000044    0.00000094
     atom  110 type  2   force =    -0.00000036   -0.00000025    0.00000094
     atom  111 type  2   force =     0.00000040   -0.00000019    0.00000094
     atom  112 type  2   force =    -0.00000013    0.00000242   -0.00000250
     atom  113 type  2   force =    -0.00000203   -0.00000133   -0.00000250
     atom  114 type  2   force =     0.00000216   -0.00000109   -0.00000250
     atom  115 type  2   force =     0.00000003   -0.00000044   -0.00000094
     atom  116 type  2   force =     0.00000036    0.00000025   -0.00000094
     atom  117 type  2   force =    -0.00000040    0.00000019   -0.00000094
     atom  118 type  2   force =     0.00000003   -0.00000021    0.00000145
     atom  119 type  2   force =     0.00000017    0.00000013    0.00000145
     atom  120 type  2   force =    -0.00000020    0.00000008    0.00000145
     atom  121 type  2   force =    -0.00000288    0.00000165    0.00000129
     atom  122 type  2   force =     0.00000001   -0.00000332    0.00000129
     atom  123 type  2   force =     0.00000287    0.00000167    0.00000129
     atom  124 type  2   force =     0.00000379   -0.00000237   -0.00000133
     atom  125 type  2   force =     0.00000016    0.00000446   -0.00000133
     atom  126 type  2   force =    -0.00000394   -0.00000210   -0.00000133
     atom  127 type  2   force =    -0.00000340    0.00000201    0.00000124
     atom  128 type  2   force =    -0.00000004   -0.00000394    0.00000124
     atom  129 type  2   force =     0.00000344    0.00000194    0.00000124
     atom  130 type  2   force =     0.00000288   -0.00000165   -0.00000129
     atom  131 type  2   force =    -0.00000001    0.00000332   -0.00000129
     atom  132 type  2   force =    -0.00000287   -0.00000167   -0.00000129
     atom  133 type  2   force =     0.00000340   -0.00000201   -0.00000124
     atom  134 type  2   force =     0.00000004    0.00000394   -0.00000124
     atom  135 type  2   force =    -0.00000344   -0.00000194   -0.00000124
     atom  136 type  2   force =    -0.00000379    0.00000237    0.00000133
     atom  137 type  2   force =    -0.00000016   -0.00000446    0.00000133
     atom  138 type  2   force =     0.00000394    0.00000210    0.00000133

     Total force =     0.366814     Total SCF correction =     0.000156


     Computing stress (Cartesian axis) and pressure

          total   stress  (Ry/bohr**3)                   (kbar)     P=       -0.97
  -0.00000644   0.00000000   0.00000000           -0.95        0.00        0.00
   0.00000000  -0.00000644   0.00000000            0.00       -0.95        0.00
   0.00000000   0.00000000  -0.00000692            0.00        0.00       -1.02

     kinetic stress (kbar)  54326.01      0.00      0.00
                                0.00  54326.01     -0.00
                                0.00     -0.00  54751.59

     local   stress (kbar) -19082.50      0.00     -0.00
                                0.00 -19082.47      0.00
                               -0.00      0.00  -2228.08

     nonloc. stress (kbar) -29681.83      0.00      0.00
                                0.00 -29681.83     -0.00
                                0.00     -0.00 -29704.25

     hartree stress (kbar)  18665.31     -0.00      0.00
                               -0.00  18665.31     -0.00
                                0.00     -0.00  11878.43

     exc-cor stress (kbar)   3670.90      0.00     -0.00
                                0.00   3670.90      0.00
                               -0.00      0.00   3667.80

     corecor stress (kbar) -10805.44     -0.00      0.00
                               -0.00 -10805.44     -0.00
                                0.00     -0.00 -10807.96

     ewald   stress (kbar) -17093.39     -0.00      0.00
                               -0.00 -17093.43     -0.00
                                0.00     -0.00 -27558.54

     hubbard stress (kbar)      0.00      0.00      0.00
                                0.00      0.00      0.00
                                0.00      0.00      0.00

     DFT-D   stress (kbar)      0.00      0.00      0.00
                                0.00      0.00      0.00
                                0.00      0.00      0.00

     XDM     stress (kbar)      0.00      0.00      0.00
                                0.00      0.00      0.00
                                0.00      0.00      0.00

     dft-nl  stress (kbar)      0.00      0.00      0.00
                                0.00      0.00      0.00
                                0.00      0.00      0.00

     TS-vdW  stress (kbar)      0.00      0.00      0.00
                                0.00      0.00      0.00
                                0.00      0.00      0.00

     MDB     stress (kbar)      0.00      0.00      0.00
                                0.00      0.00      0.00
                                0.00      0.00      0.00

     3D-RISM stress (kbar)      0.00      0.00      0.00
                                0.00      0.00      0.00
                                0.00      0.00      0.00


     Writing all to output data dir ./out/lcso.save/
 
     init_run     :    163.92s CPU    167.81s WALL (       1 calls)
     electrons    :  14858.27s CPU  15074.41s WALL (       1 calls)
     forces       :    148.80s CPU    150.49s WALL (       1 calls)
     stress       :   7156.61s CPU   7180.53s WALL (       1 calls)

     Called by init_run:
     wfcinit      :    161.69s CPU    165.28s WALL (       1 calls)
     wfcinit:atom :      1.08s CPU      1.64s WALL (      44 calls)
     wfcinit:wfcr :    153.26s CPU    155.36s WALL (      44 calls)
     potinit      :      0.52s CPU      0.61s WALL (       1 calls)
     hinit0       :      1.19s CPU      1.39s WALL (       1 calls)

     Called by electrons:
     c_bands      :  14116.39s CPU  14294.11s WALL (      25 calls)
     sum_band     :    739.93s CPU    745.55s WALL (      25 calls)
     v_of_rho     :      1.52s CPU      1.74s WALL (      26 calls)
     v_h          :      0.11s CPU      0.20s WALL (      26 calls)
     v_xc         :      1.53s CPU      1.67s WALL (      28 calls)
     mix_rho      :      0.41s CPU      0.49s WALL (      25 calls)

     Called by c_bands:
     init_us_2    :    117.58s CPU    118.01s WALL (    2332 calls)
     init_us_2:cp :    117.57s CPU    118.00s WALL (    2332 calls)
     cegterg      :  13610.00s CPU  13785.86s WALL (    1100 calls)

     Called by sum_band:
     sum_band:wei :      0.49s CPU      0.49s WALL (      25 calls)
     sum_band:loo :    738.95s CPU    744.50s WALL (      25 calls)
     sum_band:buf :     19.94s CPU     20.11s WALL (    1100 calls)
     sum_band:ini :     56.09s CPU     56.27s WALL (    1100 calls)

     Called by *egterg:
     cdiaghg      :   2368.43s CPU   2385.99s WALL (    8757 calls)
     cegterg:over :   1455.95s CPU   1466.32s WALL (    7657 calls)
     cegterg:upda :   1223.63s CPU   1246.34s WALL (    7657 calls)
     cegterg:last :   1698.80s CPU   1727.11s WALL (    2186 calls)
     cdiaghg:chol :     80.62s CPU     80.90s WALL (    8757 calls)
     cdiaghg:inve :     14.55s CPU     14.60s WALL (    8757 calls)
     cdiaghg:para :    184.84s CPU    196.41s WALL (   17514 calls)
     h_psi        :   6454.98s CPU   6533.70s WALL (    8801 calls)
     g_psi        :     21.98s CPU     22.07s WALL (    7657 calls)

     Called by h_psi:
     h_psi:calbec :   1999.59s CPU   2023.79s WALL (    8801 calls)
     vloc_psi     :   2445.87s CPU   2467.37s WALL (    8801 calls)
     add_vuspsi   :   1971.84s CPU   1978.40s WALL (    8801 calls)

     General routines
     calbec       :   2407.63s CPU   2434.41s WALL (    9021 calls)
     fft          :      0.98s CPU      1.41s WALL (     284 calls)
     ffts         :      0.04s CPU      0.06s WALL (      25 calls)
     fftw         :   2444.32s CPU   2464.35s WALL ( 3851074 calls)
 
     Parallel routines
 
     PWSCF        :      6h12m CPU      6h28m WALL

 
   This run was terminated on:  23:39:58   3May2024            

=------------------------------------------------------------------------------=
   JOB DONE.
=------------------------------------------------------------------------------=
